
    -----------------------------------------------------------------------
          Psi4: An Open-Source Ab Initio Electronic Structure Package
                               Psi4 1.1a2.dev214 

                         Git: Rev {master} 7400348 


    J. M. Turney, A. C. Simmonett, R. M. Parrish, E. G. Hohenstein,
    F. A. Evangelista, J. T. Fermann, B. J. Mintz, L. A. Burns, J. J. Wilke,
    M. L. Abrams, N. J. Russ, M. L. Leininger, C. L. Janssen, E. T. Seidl,
    W. D. Allen, H. F. Schaefer, R. A. King, E. F. Valeev, C. D. Sherrill,
    and T. D. Crawford, WIREs Comput. Mol. Sci. 2, 556-565 (2012)
    (doi: 10.1002/wcms.93)


                         Additional Contributions by
    A. E. DePrince, U. Bozkaya, A. Yu. Sokolov, D. G. A. Smith, R. Di Remigio,
    R. M. Richard, J. F. Gonthier, H. R. McAlexander, M. Saitow, and
    B. P. Pritchard
    -----------------------------------------------------------------------


    Psi4 started on: Tuesday, 28 February 2017 01:23PM

    Process ID:  28086
    PSIDATADIR: /edfs/users/mullinax/Research/programs/psi4/install/share/psi4
    Memory:     500.0 MiB
    Threads:    6
    
  ==> Input File <==

--------------------------------------------------------------------------
#! cc-pvdz N2 (6,6) active space Test DQG

# job description:
print '        N2 / cc-pVDZ / DQG(6,6), geometry optimization'

sys.path.insert(0, '../../..')
import v2rdm_casscf_private

molecule n2 {
0 1
n
n 1 1.1
}

set {
  basis cc-pvdz
  scf_type pk
  d_convergence      1e-10
  maxiter 500
  restricted_docc [ 2, 0, 0, 0, 0, 2, 0, 0 ]
  active          [ 1, 0, 1, 1, 0, 1, 1, 1 ]
}
set v2rdm_casscf_private {
  positivity dqg
  r_convergence  1e-7
  e_convergence  1e-5
  maxiter 20000
}

activate(n2)

optimize('v2rdm-casscf')

refnuc   =   23.1968666562054260  # TEST
refscf   = -108.95016246035139    # TEST
refv2rdm = -109.095505119442     # TEST

compare_values(refnuc,   n2.nuclear_repulsion_energy(),  4, "Nuclear repulsion energy")  #TEST
compare_values(refscf, get_variable("SCF TOTAL ENERGY"), 6, "SCF total energy")          # TEST
compare_values(refv2rdm, get_variable("CURRENT ENERGY"), 4, "v2RDM-CASSCF total energy") # TEST

--------------------------------------------------------------------------
/edfs/users/deprince/chem/v2rdm_casscf/private/fresh/v2rdm_casscf_private/v2rdm_casscf_private.so loaded.
gradient() will perform analytic gradient computation.

         ---------------------------------------------------------
                                   SCF
            by Justin Turney, Rob Parrish, and Andy Simmonett
                              RHF Reference
                        6 Threads,    524 MiB Core
         ---------------------------------------------------------

  ==> Geometry <==

    Molecular point group: d2h
    Full point group: D_inf_h

    Geometry (in Angstrom), charge = 0, multiplicity = 1:

       Center              X                  Y                   Z               Mass       
    ------------   -----------------  -----------------  -----------------  -----------------
           N          0.000000000000     0.000000000000    -0.550000000000    14.003074004780
           N          0.000000000000     0.000000000000     0.550000000000    14.003074004780

  Running in d2h symmetry.

  Rotational constants: A = ************  B =      1.98984  C =      1.98984 [cm^-1]
  Rotational constants: A = ************  B =  59653.84444  C =  59653.84444 [MHz]
  Nuclear repulsion =   23.572439291736362

  Charge       = 0
  Multiplicity = 1
  Electrons    = 14
  Nalpha       = 7
  Nbeta        = 7

  ==> Algorithm <==

  SCF Algorithm Type is PK.
  DIIS enabled.
  MOM disabled.
  Fractional occupation disabled.
  Guess Type is SAD.
  Energy threshold   = 1.00e-10
  Density threshold  = 1.00e-10
  Integral threshold = 0.00e+00

  ==> Primary Basis <==

  Basis Set: file /edfs/users/mullinax/Research/programs/psi4/install/share/psi4/basis/cc-pvdz.gbs
    Number of shells: 12
    Number of basis function: 28
    Number of Cartesian functions: 30
    Spherical Harmonics?: true
    Max angular momentum: 2

  ==> Pre-Iterations <==

   -------------------------------------------------------
    Irrep   Nso     Nmo     Nalpha   Nbeta   Ndocc  Nsocc
   -------------------------------------------------------
     Ag         7       7       0       0       0       0
     B1g        1       1       0       0       0       0
     B2g        3       3       0       0       0       0
     B3g        3       3       0       0       0       0
     Au         1       1       0       0       0       0
     B1u        7       7       0       0       0       0
     B2u        3       3       0       0       0       0
     B3u        3       3       0       0       0       0
   -------------------------------------------------------
    Total      28      28       7       7       7       0
   -------------------------------------------------------

  ==> Integral Setup <==

  Using in-core PK algorithm.
   Calculation information:
      Number of atoms:                   2
      Number of AO shells:              12
      Number of primitives:             44
      Number of atomic orbitals:        30
      Number of basis functions:        28

      Integral cutoff                 1.00e-12
      Number of threads:                 6

  Performing in-core PK
  Using 165242 doubles for integral storage.
  We computed 6614 shell quartets total.
  Whereas there are 3081 unique shell quartets.
   114.67 percent of shell quartets recomputed by reordering.
  ==> DiskJK: Disk-Based J/K Matrices <==

    J tasked:                  Yes
    K tasked:                  Yes
    wK tasked:                  No
    Memory (MB):               375
    Schwarz Cutoff:          1E-12

    OpenMP threads:              6
  Minimum eigenvalue in the overlap matrix is 6.1906036234E-03.
  Using Symmetric Orthogonalization.

  SCF Guess: Superposition of Atomic Densities via on-the-fly atomic UHF.

  ==> Iterations <==

                        Total Energy        Delta E     RMS |[F,P]|

   @RHF iter   0:  -109.06317263384125   -1.09063e+02   1.99199e-01 
   @RHF iter   1:  -108.94040835775850    1.22764e-01   1.40178e-02 
   @RHF iter   2:  -108.95298248113571   -1.25741e-02   3.22382e-03 DIIS
   @RHF iter   3:  -108.95373807693188   -7.55596e-04   7.85290e-04 DIIS
   @RHF iter   4:  -108.95379597719210   -5.79003e-05   5.65254e-05 DIIS
   @RHF iter   5:  -108.95379623418518   -2.56993e-07   7.43723e-06 DIIS
   @RHF iter   6:  -108.95379623999649   -5.81132e-09   1.11713e-06 DIIS
   @RHF iter   7:  -108.95379624015638   -1.59886e-10   1.03468e-07 DIIS
   @RHF iter   8:  -108.95379624015749   -1.10845e-12   5.48866e-09 DIIS
   @RHF iter   9:  -108.95379624015744    4.26326e-14   5.98923e-10 DIIS
   @RHF iter  10:  -108.95379624015760   -1.56319e-13   6.71840e-11 DIIS

  ==> Post-Iterations <==

    Orbital Energies (a.u.)
    -----------------------

    Doubly Occupied:                                                      

       1Ag   -15.687167     1B1u  -15.683810     2Ag    -1.469497  
       2B1u   -0.774851     3Ag    -0.626026     1B2u   -0.607175  
       1B3u   -0.607175  

    Virtual:                                                              

       1B2g    0.174428     1B3g    0.174428     3B1u    0.593893  
       4Ag     0.820946     2B2u    0.872872     2B3u    0.872872  
       5Ag     0.991969     2B3g    1.050510     2B2g    1.050510  
       4B1u    1.140849     5B1u    1.640840     6Ag     1.758149  
       1B1g    1.758149     3B3u    1.879691     3B2u    1.879691  
       6B1u    2.297394     1Au     2.297394     7Ag     2.871857  
       3B2g    2.993863     3B3g    2.993863     7B1u    3.278667  

    Final Occupation by Irrep:
             Ag   B1g   B2g   B3g    Au   B1u   B2u   B3u 
    DOCC [     3,    0,    0,    0,    0,    2,    1,    1 ]

  Energy converged.

  @RHF Final Energy:  -108.95379624015760

   => Energetics <=

    Nuclear Repulsion Energy =             23.5724392917363623
    One-Electron Energy =                -194.1410686727293466
    Two-Electron Energy =                  61.6148331408353727
    DFT Exchange-Correlation Energy =       0.0000000000000000
    Empirical Dispersion Energy =           0.0000000000000000
    PCM Polarization Energy =               0.0000000000000000
    EFP Energy =                            0.0000000000000000
    Total Energy =                       -108.9537962401576010

    Alert: EFP and PCM quantities not currently incorporated into SCF psivars.

Properties will be evaluated at   0.000000,   0.000000,   0.000000 Bohr

Properties computed using the SCF density matrix

  Nuclear Dipole Moment: (a.u.)
     X:     0.0000      Y:     0.0000      Z:     0.0000

  Electronic Dipole Moment: (a.u.)
     X:     0.0000      Y:     0.0000      Z:     0.0000

  Dipole Moment: (a.u.)
     X:     0.0000      Y:     0.0000      Z:     0.0000     Total:     0.0000

  Dipole Moment: (Debye)
     X:     0.0000      Y:     0.0000      Z:     0.0000     Total:     0.0000

 MINTS: Wrapper to libmints.
   by Justin Turney

   Calculation information:
      Number of atoms:                   2
      Number of AO shells:              12
      Number of SO shells:               6
      Number of primitives:             44
      Number of atomic orbitals:        30
      Number of basis functions:        28

      Number of irreps:                  8
      Integral cutoff                 0.00e+00
      Number of functions per irrep: [   7    1    3    3    1    7    3    3 ]

 OEINTS: Overlap, kinetic, potential, dipole, and quadrupole integrals
         stored in file 35.

      Computing two-electron integrals...done
      Computed 10705 non-zero two-electron integrals.
        Stored in file 33.


Reading options from the V2RDM_CASSCF_PRIVATE block
Calling plugin v2rdm_casscf_private.so.



*** tstart() called on ed7
*** at Tue Feb 28 13:23:25 2017



        ****************************************************
        *                                                  *
        *    v2RDM-CASSCF (PRIVATE)                        *
        *                                                  *
        *    A variational 2-RDM-driven approach to the    *
        *    active space self-consistent field method     *
        *                                                  *
        ****************************************************


        The following papers should be cited when using v2RDM-CASSCF:

        J. Fosso-Tande, D. R. Nascimento, and A. E. DePrince III,
        Mol. Phys. 114, 423-430 (2015).

            URL: http://dx.doi.org/10.1080/00268976.2015.1078008

        J. Fosso-Tande, T.-S. Nguyen, G. Gidofalvi, and
        A. E. DePrince III, J. Chem. Theory Comput. accepted (2016).

            URL: http://dx.doi.org/10.1021/acs.jctc.6b00190



  ==> Convergence parameters <==

        r_convergence:                      1.000e-07
        e_convergence:                      1.000e-05
        cg_convergence:                     1.000e-09
        maxiter:                                20000
        cg_maxiter:                             10000

  ==> Active space details <==

        Number of frozen core orbitals:             0
        Number of restricted occupied orbitals:     4
        Number of active occupied orbitals:         3
        Number of active virtual orbitals:          3
        Number of restricted virtual orbitals:     18
        Number of frozen virtual orbitals:          0

        Irrep:             Ag, B1g, B2g, B3g,  Au, B1u, B2u, B3u 
 
        frozen_docc     [   0,   0,   0,   0,   0,   0,   0,   0 ]
        restricted_docc [   2,   0,   0,   0,   0,   2,   0,   0 ]
        active          [   1,   0,   1,   1,   0,   1,   1,   1 ]
        restricted_uocc [   4,   1,   2,   2,   1,   4,   2,   2 ]
        frozen_uocc     [   0,   0,   0,   0,   0,   0,   0,   0 ]

  ==> Orbital optimization parameters <==

        1-step algorithm:                    true
        g_convergence:                  1.000e-04
        e_convergence:                  1.000e-08
        maximum iterations:                    20
        frequency:                            500
        active-active rotations:             true
        exact diagonal Hessian:             false
        number of DIIS vectors:                 0
        print iteration info:               false

  ==> Memory requirements <==

        D2:                          0.00 mb
        Q2:                          0.00 mb
        G2:                          0.01 mb

        Total number of variables:           1668
        Total number of constraints:         1555
        Total memory requirements:        0.19 mb

    ==> Transform two-electron integrals <==

	Presorting SO-basis two-electron integrals.
	Sorting File: SO Ints (nn|nn) nbuckets = 1
	Transforming the one-electron integrals and constructing Fock matrices
	Starting first half-transformation.
	Sorting half-transformed integrals.
	First half integral transformation complete.
	Starting second half-transformation.
	Two-electron integral transformation complete.

        Time for integral transformation:     0.06 s

    Molecular point group: d2h
    Full point group: D_inf_h

    Geometry (in Angstrom), charge = 0, multiplicity = 1:

       Center              X                  Y                   Z               Mass       
    ------------   -----------------  -----------------  -----------------  -----------------
           N          0.000000000000     0.000000000000    -0.550000000000    14.003074004780
           N          0.000000000000     0.000000000000     0.550000000000    14.003074004780

  -AO BASIS SET INFORMATION:
    Name                   = file /edfs/users/mullinax/Research/programs/psi4/install/share/psi4/basis/cc-pvdz.gbs
    Total number of shells = 12
    Number of primitives   = 44
    Number of AO           = 30
    Number of SO           = 28
    Maximum AM             = 2
    Spherical Harmonics    = TRUE

  -Contraction Scheme:
    Atom   Type   All Primitives // Shells:
   ------ ------ --------------------------
       1     N     17s 4p 1d // 3s 2p 1d 
       2     N     17s 4p 1d // 3s 2p 1d 

  ==> AO Basis Functions <==

    [ file /edfs/users/mullinax/Research/programs/psi4/install/share/psi4/basis/cc-pvdz.gbs ]
    spherical
    ****
    N   1
    S   8 1.00
                      9046.00000000           0.00070000
                      1357.00000000           0.00538900
                       309.30000000           0.02740600
                        87.73000000           0.10320700
                        28.56000000           0.27872300
                        10.21000000           0.44854000
                         3.83800000           0.27823800
                         0.74660000           0.01544000
    S   8 1.00
                      9046.00000000          -0.00015300
                      1357.00000000          -0.00120800
                       309.30000000          -0.00599200
                        87.73000000          -0.02454400
                        28.56000000          -0.06745900
                        10.21000000          -0.15807800
                         3.83800000          -0.12183100
                         0.74660000           0.54900300
    S   1 1.00
                         0.22480000           1.00000000
    P   3 1.00
                        13.55000000           0.03991900
                         2.91700000           0.21716900
                         0.79730000           0.51031900
    P   1 1.00
                         0.21850000           1.00000000
    D   1 1.00
                         0.81700000           1.00000000
    ****


        Read integrals......done.


    reference energy:        -108.953796240158
    frozen core energy:      -121.129833723351
    initial 2-RDM energy:     -94.430266028458

      oiter iiter        E(p)        E(d)      E gap)      mu     eps(p)     eps(d)
          0    52 -109.832610  165.291445  275.124054   1.000    2.27415    1.63882
          1    54 -101.081324 -318.262394  217.181070   1.000    0.45671    0.98935
          2    51 -109.434054 -195.345426   85.911372   1.000    0.17080    0.31752
          3    50 -110.894692 -152.196314   41.301622   1.000    0.23513    0.11216
          4    49 -109.964247 -130.616497   20.652250   1.000    0.20027    0.06125
          5    48 -108.946818 -118.162754    9.215936   1.000    0.14577    0.04421
          6    48 -108.377515 -111.884338    3.506823   1.000    0.10783    0.03764
          7    48 -108.071429 -108.731520    0.660091   1.000    0.08174    0.03221
          8    48 -107.883269 -107.320142    0.563127   1.000    0.05826    0.02491
          9    48 -107.796713 -106.575624    1.221088   1.000    0.04066    0.02115
         10    47 -107.808494 -106.458462    1.350032   1.000    0.02762    0.01883
         11    44 -107.812217 -106.834512    0.977706   1.000    0.01114    0.01469
         12    44 -107.838259 -107.266910    0.571349   1.000    0.00591    0.00752
         13    44 -107.897778 -107.409715    0.488063   1.000    0.00656    0.00620
         14    43 -107.944250 -107.524920    0.419330   1.000    0.00605    0.00607
         15    42 -107.980966 -107.612889    0.368077   1.000    0.00462    0.00615
         16    42 -108.010714 -107.666370    0.344344   1.000    0.00297    0.00613
         17    42 -108.040077 -107.686133    0.353944   1.000    0.00238    0.00592
         18    42 -108.067193 -107.677048    0.390145   1.000    0.00363    0.00558
         19    44 -108.100752 -107.673329    0.427424   1.000    0.00493    0.00525
         20    44 -108.140067 -107.676362    0.463705   1.000    0.00565    0.00503
         21    44 -108.183259 -107.699122    0.484138   1.000    0.00570    0.00492
         22    44 -108.229133 -107.757489    0.471645   1.000    0.00498    0.00487
         23    44 -108.274941 -107.796123    0.478818   1.000    0.00382    0.00486
         24    43 -108.318919 -107.820603    0.498316   1.000    0.00260    0.00484
         25    42 -108.360000 -107.836484    0.523516   1.000    0.00184    0.00479
         26    43 -108.396439 -107.845590    0.550849   1.000    0.00207    0.00467
         27    43 -108.428719 -107.863712    0.565007   1.000    0.00284    0.00451
         28    44 -108.452907 -107.890379    0.562529   1.000    0.00336    0.00435
         29    44 -108.473701 -107.918396    0.555306   1.000    0.00358    0.00422
         30    43 -108.494435 -107.932481    0.561955   1.000    0.00355    0.00413
         31    42 -108.511072 -107.939561    0.571511   1.000    0.00330    0.00408
         32    43 -108.528609 -107.958926    0.569684   1.000    0.00294    0.00402
         33    41 -108.544248 -107.983845    0.560403   1.000    0.00276    0.00389
         34    42 -108.561116 -108.049347    0.511770   1.000    0.00293    0.00354
         35    41 -108.586765 -108.198076    0.388689   1.000    0.00310    0.00308
         36    40 -108.601480 -108.372908    0.228572   1.000    0.00270    0.00280
         37    41 -108.608284 -108.483902    0.124382   1.000    0.00185    0.00273
         38    41 -108.611933 -108.497855    0.114078   1.000    0.00139    0.00267
         39    42 -108.617423 -108.445062    0.172360   1.000    0.00145    0.00259
         40    42 -108.624810 -108.373946    0.250864   1.000    0.00139    0.00253
         41    42 -108.633238 -108.323388    0.309850   1.000    0.00118    0.00250
         42    41 -108.644932 -108.307284    0.337648   1.000    0.00099    0.00246
         43    41 -108.656431 -108.320959    0.335473   1.000    0.00096    0.00242
         44    42 -108.663994 -108.343802    0.320192   1.000    0.00097    0.00240
         45    42 -108.672797 -108.362118    0.310680   1.000    0.00092    0.00237
         46    42 -108.682434 -108.374700    0.307733   1.000    0.00083    0.00235
         47    42 -108.692499 -108.378716    0.313783   1.000    0.00074    0.00234
         48    42 -108.702670 -108.376547    0.326122   1.000    0.00066    0.00233
         49    41 -108.712752 -108.372941    0.339811   1.000    0.00062    0.00232
         50    40 -108.722574 -108.369074    0.353500   1.000    0.00061    0.00230
         51    42 -108.732041 -108.365367    0.366674   1.000    0.00063    0.00229
         52    40 -108.740306 -108.362432    0.377875   1.000    0.00063    0.00228
         53    42 -108.745880 -108.361872    0.384008   1.000    0.00068    0.00227
         54    42 -108.752484 -108.365674    0.386810   1.000    0.00078    0.00225
         55    42 -108.760253 -108.370888    0.389365   1.000    0.00082    0.00224
         56    41 -108.769255 -108.378677    0.390577   1.000    0.00080    0.00222
         57    42 -108.779382 -108.387121    0.392260   1.000    0.00074    0.00221
         58    42 -108.790249 -108.393633    0.396616   1.000    0.00071    0.00219
         59    42 -108.801300 -108.396483    0.404816   1.000    0.00075    0.00218
         60    42 -108.811954 -108.397516    0.414438   1.000    0.00084    0.00217
         61    42 -108.821642 -108.398771    0.422871   1.000    0.00095    0.00216
         62    42 -108.830083 -108.400505    0.429578   1.000    0.00101    0.00215
         63    41 -108.834245 -108.403765    0.430480   1.000    0.00074    0.00215
         64    40 -108.835757 -108.414956    0.420801   1.000    0.00047    0.00214
         65    42 -108.841194 -108.422679    0.418515   1.000    0.00043    0.00213
         66    42 -108.846658 -108.424880    0.421778   1.000    0.00041    0.00212
         67    42 -108.852351 -108.425457    0.426893   1.000    0.00041    0.00211
         68    42 -108.858478 -108.426554    0.431925   1.000    0.00044    0.00210
         69    42 -108.865142 -108.428200    0.436942   1.000    0.00045    0.00209
         70    42 -108.872215 -108.429388    0.442827   1.000    0.00046    0.00208
         71    42 -108.879528 -108.430745    0.448782   1.000    0.00046    0.00207
         72    42 -108.886931 -108.433373    0.453558   1.000    0.00046    0.00206
         73    42 -108.894342 -108.434954    0.459388   1.000    0.00046    0.00205
         74    42 -108.901703 -108.435554    0.466149   1.000    0.00045    0.00205
         75    42 -108.908884 -108.435637    0.473247   1.000    0.00043    0.00205
         76    42 -108.915970 -108.435839    0.480131   1.000    0.00040    0.00205
         77    42 -108.923055 -108.436337    0.486717   1.000    0.00037    0.00205
         78    42 -108.929855 -108.437121    0.492734   1.000    0.00035    0.00204
         79    42 -108.936506 -108.439953    0.496552   1.000    0.00037    0.00203
         80    41 -108.943091 -108.445084    0.498007   1.000    0.00041    0.00202
         81    40 -108.949434 -108.449664    0.499770   1.000    0.00044    0.00200
         82    41 -108.955641 -108.453483    0.502158   1.000    0.00047    0.00199
         83    40 -108.961756 -108.456456    0.505301   1.000    0.00049    0.00198
         84    41 -108.967833 -108.460563    0.507270   1.000    0.00053    0.00196
         85    42 -108.973840 -108.467578    0.506262   1.000    0.00057    0.00194
         86    42 -108.979798 -108.480179    0.499619   1.000    0.00064    0.00190
         87    42 -108.985685 -108.500851    0.484834   1.000    0.00077    0.00182
         88    42 -108.991572 -108.536054    0.455518   1.000    0.00092    0.00172
         89    42 -108.997373 -108.581030    0.416344   1.000    0.00101    0.00163
         90    42 -109.002487 -108.627726    0.374762   1.000    0.00104    0.00156
         91    42 -109.004239 -108.673808    0.330431   1.000    0.00112    0.00149
         92    40 -109.005922 -108.727274    0.278648   1.000    0.00114    0.00141
         93    40 -109.006965 -108.775092    0.231873   1.000    0.00111    0.00134
         94    41 -109.007893 -108.808965    0.198929   1.000    0.00105    0.00128
         95    40 -109.009044 -108.832055    0.176989   1.000    0.00098    0.00123
         96    40 -109.010328 -108.845720    0.164608   1.000    0.00089    0.00120
         97    39 -109.011701 -108.852388    0.159313   1.000    0.00079    0.00118
         98    41 -109.013225 -108.858050    0.155174   1.000    0.00068    0.00115
         99    41 -109.014725 -108.861957    0.152768   1.000    0.00057    0.00112
        100    41 -109.015879 -108.864888    0.150992   1.000    0.00047    0.00109
        101    39 -109.017116 -108.869829    0.147286   1.000    0.00041    0.00104
        102    40 -109.018282 -108.872030    0.146252   1.000    0.00038    0.00099
        103    41 -109.019217 -108.873749    0.145468   1.000    0.00037    0.00094
        104    41 -109.019925 -108.873085    0.146841   1.000    0.00038    0.00089
        105    41 -109.020498 -108.871616    0.148881   1.000    0.00038    0.00085
        106    41 -109.020857 -108.869778    0.151079   1.000    0.00039    0.00081
        107    40 -109.021345 -108.868558    0.152787   1.000    0.00040    0.00077
        108    38 -109.022063 -108.866657    0.155406   1.000    0.00041    0.00074
        109    40 -109.023013 -108.864116    0.158897   1.000    0.00041    0.00072
        110    40 -109.024116 -108.861511    0.162604   1.000    0.00041    0.00070
        111    38 -109.025324 -108.859599    0.165726   1.000    0.00040    0.00069
        112    39 -109.026595 -108.858984    0.167610   1.000    0.00039    0.00067
        113    40 -109.027925 -108.860618    0.167307   1.000    0.00039    0.00066
        114    41 -109.029257 -108.864293    0.164964   1.000    0.00038    0.00064
        115    37 -109.030508 -108.870044    0.160464   1.000    0.00038    0.00062
        116    38 -109.031656 -108.877038    0.154618   1.000    0.00039    0.00060
        117    41 -109.032685 -108.885495    0.147189   1.000    0.00040    0.00057
        118    41 -109.033586 -108.894689    0.138896   1.000    0.00041    0.00055
        119    38 -109.034343 -108.904941    0.129402   1.000    0.00042    0.00052
        120    41 -109.034949 -108.915692    0.119257   1.000    0.00042    0.00050
        121    38 -109.035374 -108.926526    0.108848   1.000    0.00042    0.00048
        122    41 -109.035617 -108.937711    0.097907   1.000    0.00041    0.00046
        123    38 -109.035682 -108.950394    0.085288   1.000    0.00040    0.00043
        124    38 -109.035589 -108.960326    0.075263   1.000    0.00040    0.00042
        125    37 -109.035284 -108.969030    0.066254   1.000    0.00038    0.00040
        126    37 -109.034421 -108.978405    0.056017   1.000    0.00037    0.00038
        127    38 -109.033413 -108.986654    0.046759   1.000    0.00034    0.00036
        128    38 -109.032660 -108.993165    0.039495   1.000    0.00032    0.00034
        129    37 -109.031902 -108.998131    0.033770   1.000    0.00030    0.00032
        130    37 -109.031089 -109.001717    0.029372   1.000    0.00028    0.00030
        131    38 -109.030090 -109.004333    0.025757   1.000    0.00025    0.00029
        132    37 -109.029401 -109.006721    0.022680   1.000    0.00023    0.00027
        133    38 -109.028777 -109.007733    0.021044   1.000    0.00022    0.00025
        134    37 -109.028245 -109.008080    0.020165   1.000    0.00020    0.00023
        135    37 -109.027809 -109.008298    0.019510   1.000    0.00019    0.00021
        136    40 -109.027494 -109.008594    0.018900   1.000    0.00018    0.00020
        137    39 -109.027271 -109.008578    0.018692   1.000    0.00017    0.00018
        138    38 -109.027107 -109.008314    0.018793   1.000    0.00016    0.00017
        139    40 -109.026989 -109.008017    0.018972   1.000    0.00015    0.00016
        140    40 -109.026913 -109.007938    0.018975   1.000    0.00015    0.00015
        141    40 -109.026860 -109.008371    0.018489   1.000    0.00014    0.00015
        142    37 -109.026814 -109.009161    0.017653   1.000    0.00014    0.00014
        143    37 -109.026802 -109.010232    0.016570   1.000    0.00013    0.00013
        144    37 -109.026823 -109.011839    0.014984   1.000    0.00013    0.00012
        145    38 -109.026848 -109.013912    0.012935   1.000    0.00012    0.00012
        146    37 -109.026823 -109.015722    0.011101   1.000    0.00012    0.00011
        147    38 -109.026753 -109.017502    0.009250   1.000    0.00011    0.00011
        148    38 -109.026650 -109.019451    0.007199   1.000    0.00011    0.00010
        149    37 -109.026529 -109.021193    0.005336   1.000    0.00010    0.00009
        150    38 -109.026404 -109.022589    0.003814   1.000    0.00010    0.00009
        151    37 -109.026278 -109.023579    0.002699   1.000    0.00010    0.00008
        152    37 -109.026155 -109.024222    0.001933   1.000    0.00009    0.00008
        153    38 -109.026034 -109.024441    0.001593   1.000    0.00009    0.00007
        154    37 -109.025918 -109.024308    0.001609   1.000    0.00009    0.00006
        155    37 -109.025817 -109.024053    0.001764   1.000    0.00009    0.00006
        156    37 -109.025731 -109.023538    0.002193   1.000    0.00009    0.00005
        157    38 -109.025664 -109.022869    0.002795   1.000    0.00009    0.00005
        158    37 -109.025629 -109.022285    0.003344   1.000    0.00009    0.00005
        159    38 -109.025620 -109.021661    0.003959   1.000    0.00009    0.00004
        160    37 -109.025605 -109.020988    0.004616   1.000    0.00008    0.00004
        161    38 -109.025509 -109.020417    0.005092   1.000    0.00008    0.00004
        162    37 -109.025509 -109.020218    0.005290   1.000    0.00008    0.00004
        163    37 -109.025521 -109.019963    0.005559   1.000    0.00008    0.00004
        164    38 -109.025542 -109.019747    0.005795   1.000    0.00008    0.00004
        165    38 -109.025580 -109.019554    0.006026   1.000    0.00008    0.00004
        166    37 -109.025627 -109.019356    0.006271   1.000    0.00008    0.00004
        167    38 -109.025680 -109.019162    0.006517   1.000    0.00007    0.00004
        168    37 -109.025736 -109.018982    0.006753   1.000    0.00008    0.00003
        169    37 -109.025793 -109.018833    0.006960   1.000    0.00008    0.00003
        170    37 -109.025849 -109.018733    0.007116   1.000    0.00008    0.00003
        171    38 -109.025903 -109.018699    0.007204   1.000    0.00008    0.00003
        172    37 -109.025955 -109.018747    0.007208   1.000    0.00008    0.00003
        173    38 -109.026004 -109.018913    0.007091   1.000    0.00008    0.00003
        174    37 -109.026049 -109.019324    0.006725   1.000    0.00008    0.00003
        175    37 -109.026086 -109.019714    0.006372   1.000    0.00007    0.00003
        176    37 -109.026116 -109.020160    0.005955   1.000    0.00007    0.00003
        177    38 -109.026138 -109.020645    0.005493   1.000    0.00007    0.00002
        178    38 -109.026152 -109.021150    0.005002   1.000    0.00007    0.00002
        179    37 -109.026159 -109.021659    0.004500   1.000    0.00007    0.00002
        180    37 -109.026158 -109.022160    0.003998   1.000    0.00007    0.00002
        181    37 -109.026151 -109.022642    0.003509   1.000    0.00007    0.00002
        182    38 -109.026138 -109.023097    0.003041   1.000    0.00007    0.00002
        183    38 -109.026121 -109.023517    0.002603   1.000    0.00007    0.00002
        184    38 -109.026095 -109.024036    0.002059   1.000    0.00007    0.00002
        185    37 -109.026061 -109.024519    0.001542   1.000    0.00007    0.00002
        186    38 -109.026023 -109.024879    0.001144   1.000    0.00007    0.00002
        187    38 -109.025983 -109.025161    0.000822   1.000    0.00007    0.00002
        188    37 -109.025943 -109.025367    0.000575   1.000    0.00007    0.00002
        189    38 -109.025818 -109.025508    0.000310   1.000    0.00007    0.00002
        190    37 -109.025759 -109.025697    0.000062   1.000    0.00007    0.00002
        191    37 -109.025669 -109.025784    0.000115   1.000    0.00006    0.00002
        192    37 -109.025620 -109.025865    0.000245   1.000    0.00006    0.00002
        193    37 -109.025615 -109.026029    0.000414   1.000    0.00006    0.00002
        194    37 -109.025599 -109.025931    0.000332   1.000    0.00006    0.00002
        195    37 -109.025573 -109.025819    0.000246   1.000    0.00006    0.00001
        196    37 -109.025543 -109.025737    0.000194   1.000    0.00006    0.00002
        197    37 -109.025535 -109.025784    0.000249   1.000    0.00006    0.00001
        198    37 -109.025528 -109.025756    0.000228   1.000    0.00006    0.00001
        199    37 -109.025514 -109.025705    0.000191   1.000    0.00006    0.00001
        200    37 -109.025494 -109.025662    0.000168   1.000    0.00006    0.00001
        201    37 -109.025471 -109.025628    0.000157   1.000    0.00006    0.00001
        202    37 -109.025449 -109.025599    0.000149   1.000    0.00006    0.00001
        203    37 -109.025431 -109.025563    0.000132   1.000    0.00006    0.00001
        204    37 -109.025417 -109.025514    0.000097   1.000    0.00005    0.00001
        205    37 -109.025407 -109.025448    0.000040   1.000    0.00005    0.00001
        206    37 -109.025400 -109.025365    0.000035   1.000    0.00005    0.00001
        207    37 -109.025395 -109.025269    0.000127   1.000    0.00005    0.00001
        208    37 -109.025392 -109.025163    0.000229   1.000    0.00005    0.00001
        209    37 -109.025390 -109.025049    0.000341   1.000    0.00005    0.00001
        210    37 -109.025389 -109.024931    0.000458   1.000    0.00005    0.00001
        211    37 -109.025390 -109.024809    0.000581   1.000    0.00005    0.00001
        212    37 -109.025392 -109.024684    0.000708   1.000    0.00005    0.00001
        213    37 -109.025395 -109.024557    0.000838   1.000    0.00005    0.00001
        214    37 -109.025400 -109.024431    0.000969   1.000    0.00005    0.00001
        215    37 -109.025407 -109.024309    0.001098   1.000    0.00005    0.00001
        216    37 -109.025415 -109.024193    0.001221   1.000    0.00005    0.00001
        217    37 -109.025424 -109.024087    0.001337   1.000    0.00005    0.00001
        218    37 -109.025435 -109.023994    0.001441   1.000    0.00005    0.00001
        219    37 -109.025447 -109.023917    0.001530   1.000    0.00005    0.00001
        220    37 -109.025459 -109.023857    0.001602   1.000    0.00005    0.00001
        221    37 -109.025472 -109.023816    0.001656   1.000    0.00005    0.00001
        222    37 -109.025485 -109.023794    0.001691   1.000    0.00005    0.00001
        223    37 -109.025498 -109.023791    0.001707   1.000    0.00005    0.00001
        224    37 -109.025511 -109.023807    0.001704   1.000    0.00005    0.00001
        225    38 -109.025523 -109.023841    0.001682   1.000    0.00005    0.00001
        226    37 -109.025534 -109.023891    0.001643   1.000    0.00005    0.00001
        227    37 -109.025544 -109.023955    0.001588   1.000    0.00005    0.00001
        228    37 -109.025552 -109.024032    0.001520   1.000    0.00005    0.00001
        229    37 -109.025559 -109.024120    0.001439   1.000    0.00005    0.00001
        230    37 -109.025564 -109.024216    0.001348   1.000    0.00005    0.00001
        231    36 -109.025567 -109.024318    0.001249   1.000    0.00005    0.00001
        232    37 -109.025569 -109.024425    0.001144   1.000    0.00005    0.00001
        233    37 -109.025568 -109.024533    0.001035   1.000    0.00005    0.00001
        234    37 -109.025566 -109.024641    0.000925   1.000    0.00005    0.00001
        235    37 -109.025562 -109.024746    0.000816   1.000    0.00005    0.00001
        236    37 -109.025557 -109.024847    0.000709   1.000    0.00005    0.00001
        237    37 -109.025550 -109.024943    0.000607   1.000    0.00005    0.00001
        238    37 -109.025542 -109.025031    0.000510   1.000    0.00005    0.00001
        239    37 -109.025533 -109.025112    0.000421   1.000    0.00005    0.00001
        240    38 -109.025522 -109.025183    0.000339   1.000    0.00005    0.00001
        241    37 -109.025512 -109.025245    0.000267   1.000    0.00005    0.00001
        242    37 -109.025501 -109.025296    0.000204   1.000    0.00005    0.00001
        243    37 -109.025489 -109.025338    0.000151   1.000    0.00005    0.00001
        244    37 -109.025478 -109.025370    0.000108   1.000    0.00005    0.00001
        245    37 -109.025466 -109.025391    0.000075   1.000    0.00005    0.00001
        246    37 -109.025455 -109.025403    0.000052   1.000    0.00005    0.00001
        247    37 -109.025444 -109.025407    0.000038   1.000    0.00004    0.00001
        248    37 -109.025434 -109.025402    0.000032   1.000    0.00004    0.00001
        249    37 -109.025425 -109.025389    0.000035   1.000    0.00004    0.00001
        250    37 -109.025416 -109.025370    0.000046   1.000    0.00004    0.00001
        251    37 -109.025407 -109.025344    0.000063   1.000    0.00004    0.00001
        252    37 -109.025400 -109.025314    0.000086   1.000    0.00004    0.00001
        253    37 -109.025394 -109.025279    0.000115   1.000    0.00004    0.00001
        254    38 -109.025388 -109.025241    0.000147   1.000    0.00004    0.00001
        255    37 -109.025383 -109.025200    0.000183   1.000    0.00004    0.00001
        256    37 -109.025379 -109.025157    0.000222   1.000    0.00004    0.00001
        257    37 -109.025376 -109.025114    0.000262   1.000    0.00004    0.00001
        258    37 -109.025373 -109.025070    0.000303   1.000    0.00004    0.00001
        259    37 -109.025371 -109.025027    0.000344   1.000    0.00004    0.00001
        260    37 -109.025370 -109.024985    0.000385   1.000    0.00004    0.00001
        261    37 -109.025369 -109.024944    0.000425   1.000    0.00004    0.00001
        262    38 -109.025369 -109.024906    0.000463   1.000    0.00004    0.00001
        263    37 -109.025370 -109.024879    0.000492   1.000    0.00004    0.00002
        264    37 -109.025386 -109.025019    0.000367   1.000    0.00004    0.00001
        265    37 -109.025393 -109.025047    0.000346   1.000    0.00004    0.00001
        266    37 -109.025392 -109.025048    0.000344   1.000    0.00004    0.00001
        267    37 -109.025389 -109.025024    0.000365   1.000    0.00004    0.00002
        268    37 -109.025401 -109.025153    0.000247   1.000    0.00004    0.00002
        269    37 -109.025406 -109.025189    0.000217   1.000    0.00004    0.00002
        270    37 -109.025402 -109.025182    0.000220   1.000    0.00004    0.00001
        271    37 -109.025394 -109.025148    0.000245   1.000    0.00004    0.00001
        272    38 -109.025385 -109.025097    0.000288   1.000    0.00004    0.00001
        273    37 -109.025379 -109.025038    0.000341   1.000    0.00004    0.00001
        274    38 -109.025373 -109.024978    0.000396   1.000    0.00004    0.00001
        275    37 -109.025369 -109.024920    0.000449   1.000    0.00004    0.00001
        276    38 -109.025366 -109.024868    0.000498   1.000    0.00004    0.00001
        277    37 -109.025364 -109.024818    0.000545   1.000    0.00004    0.00001
        278    37 -109.025362 -109.024771    0.000591   1.000    0.00004    0.00001
        279    37 -109.025362 -109.024725    0.000636   1.000    0.00004    0.00001
        280    37 -109.025362 -109.024682    0.000680   1.000    0.00004    0.00001
        281    37 -109.025364 -109.024643    0.000722   1.000    0.00004    0.00001
        282    37 -109.025367 -109.024610    0.000757   1.000    0.00004    0.00001
        283    37 -109.025371 -109.024589    0.000782   1.000    0.00004    0.00001
        284    37 -109.025375 -109.024579    0.000796   1.000    0.00004    0.00001
        285    37 -109.025380 -109.024585    0.000795   1.000    0.00004    0.00001
        286    38 -109.025384 -109.024606    0.000778   1.000    0.00004    0.00001
        287    37 -109.025388 -109.024642    0.000747   1.000    0.00004    0.00001
        288    37 -109.025392 -109.024691    0.000701   1.000    0.00004    0.00001
        289    37 -109.025395 -109.024753    0.000642   1.000    0.00004    0.00001
        290    37 -109.025396 -109.024823    0.000573   1.000    0.00004    0.00001
        291    37 -109.025397 -109.024900    0.000497   1.000    0.00004    0.00001
        292    38 -109.025396 -109.024979    0.000417   1.000    0.00004    0.00001
        293    37 -109.025393 -109.025058    0.000334   1.000    0.00004    0.00001
        294    37 -109.025389 -109.025135    0.000254   1.000    0.00004    0.00001
        295    37 -109.025383 -109.025206    0.000177   1.000    0.00004    0.00001
        296    37 -109.025376 -109.025270    0.000106   1.000    0.00004    0.00001
        297    37 -109.025368 -109.025325    0.000043   1.000    0.00004    0.00001
        298    38 -109.025359 -109.025370    0.000011   1.000    0.00004    0.00001
        299    37 -109.025349 -109.025404    0.000054   1.000    0.00004    0.00001
        300    37 -109.025339 -109.025426    0.000087   1.000    0.00004    0.00001
        301    37 -109.025329 -109.025436    0.000107   1.000    0.00004    0.00001
        302    37 -109.025319 -109.025435    0.000116   1.000    0.00004    0.00001
        303    37 -109.025309 -109.025423    0.000114   1.000    0.00003    0.00001
        304    37 -109.025299 -109.025401    0.000102   1.000    0.00003    0.00001
        305    37 -109.025291 -109.025371    0.000080   1.000    0.00003    0.00001
        306    37 -109.025283 -109.025333    0.000050   1.000    0.00003    0.00001
        307    37 -109.025276 -109.025289    0.000013   1.000    0.00003    0.00001
        308    37 -109.025270 -109.025241    0.000029   1.000    0.00003    0.00001
        309    37 -109.025265 -109.025191    0.000074   1.000    0.00003    0.00001
        310    38 -109.025261 -109.025140    0.000122   1.000    0.00003    0.00001
        311    37 -109.025259 -109.025089    0.000169   1.000    0.00003    0.00001
        312    37 -109.025257 -109.025041    0.000216   1.000    0.00003    0.00001
        313    37 -109.025256 -109.024995    0.000261   1.000    0.00003    0.00001
        314    37 -109.025256 -109.024954    0.000301   1.000    0.00003    0.00001
        315    37 -109.025256 -109.024919    0.000338   1.000    0.00003    0.00001
        316    37 -109.025257 -109.024888    0.000369   1.000    0.00003    0.00001
        317    37 -109.025259 -109.024864    0.000395   1.000    0.00003    0.00001
        318    37 -109.025261 -109.024846    0.000414   1.000    0.00003    0.00001
        319    37 -109.025263 -109.024834    0.000428   1.000    0.00003    0.00001
        320    37 -109.025264 -109.024828    0.000436   1.000    0.00003    0.00001
        321    37 -109.025266 -109.024828    0.000438   1.000    0.00003    0.00001
        322    37 -109.025267 -109.024832    0.000436   1.000    0.00003    0.00001
        323    37 -109.025268 -109.024839    0.000429   1.000    0.00003    0.00001
        324    37 -109.025269 -109.024851    0.000418   1.000    0.00003    0.00001
        325    37 -109.025269 -109.024864    0.000405   1.000    0.00003    0.00001
        326    37 -109.025269 -109.024879    0.000389   1.000    0.00003    0.00001
        327    37 -109.025279 -109.025019    0.000259   1.000    0.00003    0.00001
        328    37 -109.025289 -109.025171    0.000118   1.000    0.00003    0.00001
        329    37 -109.025291 -109.025288    0.000003   1.000    0.00003    0.00001
        330    37 -109.025288 -109.025378    0.000090   1.000    0.00003    0.00001
        331    38 -109.025280 -109.025431    0.000150   1.000    0.00003    0.00001
        332    37 -109.025272 -109.025447    0.000176   1.000    0.00003    0.00001
        333    37 -109.025263 -109.025434    0.000171   1.000    0.00003    0.00001
        334    37 -109.025266 -109.025541    0.000276   1.000    0.00003    0.00001
        335    37 -109.025267 -109.025623    0.000356   1.000    0.00003    0.00001
        336    37 -109.025262 -109.025670    0.000408   1.000    0.00003    0.00001
        337    37 -109.025251 -109.025690    0.000439   1.000    0.00003    0.00001
        338    37 -109.025238 -109.025680    0.000441   1.000    0.00003    0.00001
        339    37 -109.025226 -109.025642    0.000416   1.000    0.00003    0.00001
        340    37 -109.025213 -109.025582    0.000369   1.000    0.00003    0.00001
        341    37 -109.025202 -109.025509    0.000306   1.000    0.00003    0.00001
        342    37 -109.025192 -109.025428    0.000236   1.000    0.00003    0.00001
        343    37 -109.025183 -109.025347    0.000164   1.000    0.00003    0.00001
        344    37 -109.025175 -109.025270    0.000095   1.000    0.00003    0.00001
        345    37 -109.025168 -109.025199    0.000031   1.000    0.00003    0.00001
        346    38 -109.025162 -109.025139    0.000023   1.000    0.00003    0.00001
        347    37 -109.025157 -109.025089    0.000069   1.000    0.00003    0.00001
        348    37 -109.025153 -109.025049    0.000104   1.000    0.00003    0.00001
        349    37 -109.025150 -109.025021    0.000129   1.000    0.00003    0.00001
        350    37 -109.025148 -109.025002    0.000147   1.000    0.00003    0.00001
        351    37 -109.025147 -109.024991    0.000156   1.000    0.00003    0.00001
        352    37 -109.025146 -109.024988    0.000158   1.000    0.00003    0.00001
        353    37 -109.025145 -109.024991    0.000154   1.000    0.00003    0.00001
        354    37 -109.025145 -109.025000    0.000144   1.000    0.00003    0.00001
        355    37 -109.025144 -109.025014    0.000130   1.000    0.00003    0.00001
        356    37 -109.025144 -109.025030    0.000113   1.000    0.00003    0.00001
        357    37 -109.025143 -109.025048    0.000095   1.000    0.00003    0.00001
        358    37 -109.025142 -109.025066    0.000076   1.000    0.00003    0.00001
        359    37 -109.025140 -109.025082    0.000059   1.000    0.00003    0.00001
        360    35 -109.025139 -109.025094    0.000045   1.000    0.00003    0.00001
        361    35 -109.025137 -109.025102    0.000035   1.000    0.00003    0.00001
        362    37 -109.025134 -109.025104    0.000030   1.000    0.00003    0.00001
        363    37 -109.025132 -109.025101    0.000031   1.000    0.00003    0.00000
        364    35 -109.025129 -109.025092    0.000037   1.000    0.00003    0.00000
        365    38 -109.025126 -109.025079    0.000047   1.000    0.00003    0.00000
        366    36 -109.025123 -109.025061    0.000062   1.000    0.00003    0.00000
        367    35 -109.025120 -109.025040    0.000081   1.000    0.00003    0.00000
        368    37 -109.025118 -109.025016    0.000102   1.000    0.00003    0.00000
        369    35 -109.025115 -109.024991    0.000124   1.000    0.00003    0.00000
        370    35 -109.025113 -109.024965    0.000147   1.000    0.00003    0.00000
        371    35 -109.025111 -109.024941    0.000170   1.000    0.00003    0.00000
        372    35 -109.025109 -109.024918    0.000191   1.000    0.00003    0.00000
        373    36 -109.025107 -109.024897    0.000211   1.000    0.00003    0.00000
        374    35 -109.025106 -109.024879    0.000227   1.000    0.00003    0.00000
        375    35 -109.025105 -109.024865    0.000241   1.000    0.00003    0.00000
        376    35 -109.025105 -109.024854    0.000250   1.000    0.00003    0.00000
        377    35 -109.025104 -109.024848    0.000257   1.000    0.00003    0.00000
        378    35 -109.025104 -109.024845    0.000259   1.000    0.00003    0.00000
        379    35 -109.025104 -109.024847    0.000257   1.000    0.00003    0.00000
        380    36 -109.025103 -109.024852    0.000251   1.000    0.00003    0.00000
        381    35 -109.025103 -109.024861    0.000242   1.000    0.00003    0.00000
        382    37 -109.025103 -109.024872    0.000230   1.000    0.00003    0.00000
        383    37 -109.025102 -109.024886    0.000216   1.000    0.00003    0.00000
        384    37 -109.025101 -109.024902    0.000199   1.000    0.00003    0.00000
        385    37 -109.025100 -109.024919    0.000181   1.000    0.00003    0.00000
        386    35 -109.025099 -109.024936    0.000162   1.000    0.00003    0.00000
        387    35 -109.025097 -109.024954    0.000143   1.000    0.00003    0.00000
        388    37 -109.025095 -109.024971    0.000124   1.000    0.00003    0.00000
        389    35 -109.025092 -109.024987    0.000106   1.000    0.00003    0.00000
        390    37 -109.025090 -109.025002    0.000088   1.000    0.00003    0.00000
        391    37 -109.025087 -109.025014    0.000073   1.000    0.00003    0.00000
        392    36 -109.025084 -109.025025    0.000059   1.000    0.00003    0.00000
        393    37 -109.025080 -109.025033    0.000047   1.000    0.00003    0.00000
        394    37 -109.025077 -109.025039    0.000038   1.000    0.00003    0.00000
        395    37 -109.025073 -109.025043    0.000031   1.000    0.00003    0.00000
        396    35 -109.025070 -109.025044    0.000026   1.000    0.00003    0.00000
        397    36 -109.025066 -109.025043    0.000024   1.000    0.00003    0.00000
        398    36 -109.025063 -109.025039    0.000024   1.000    0.00003    0.00000
        399    36 -109.025060 -109.025034    0.000025   1.000    0.00003    0.00000
        400    35 -109.025056 -109.025027    0.000029   1.000    0.00002    0.00000
        401    36 -109.025053 -109.025019    0.000035   1.000    0.00002    0.00000
        402    35 -109.025050 -109.025009    0.000041   1.000    0.00002    0.00000
        403    35 -109.025048 -109.024998    0.000049   1.000    0.00002    0.00000
        404    37 -109.025045 -109.024987    0.000058   1.000    0.00002    0.00000
        405    35 -109.025043 -109.024975    0.000068   1.000    0.00002    0.00000
        406    36 -109.025041 -109.024963    0.000078   1.000    0.00002    0.00000
        407    35 -109.025039 -109.024951    0.000088   1.000    0.00002    0.00000
        408    36 -109.025038 -109.024940    0.000098   1.000    0.00002    0.00000
        409    37 -109.025036 -109.024929    0.000108   1.000    0.00002    0.00000
        410    36 -109.025035 -109.024918    0.000117   1.000    0.00002    0.00000
        411    35 -109.025034 -109.024908    0.000126   1.000    0.00002    0.00000
        412    36 -109.025033 -109.024899    0.000135   1.000    0.00002    0.00000
        413    35 -109.025032 -109.024890    0.000142   1.000    0.00002    0.00000
        414    36 -109.025032 -109.024883    0.000149   1.000    0.00002    0.00000
        415    36 -109.025031 -109.024877    0.000154   1.000    0.00002    0.00000
        416    36 -109.025030 -109.024871    0.000159   1.000    0.00002    0.00000
        417    35 -109.025030 -109.024866    0.000163   1.000    0.00002    0.00000
        418    35 -109.025029 -109.024863    0.000167   1.000    0.00002    0.00000
        419    35 -109.025029 -109.024860    0.000169   1.000    0.00002    0.00000
        420    36 -109.025028 -109.024858    0.000170   1.000    0.00002    0.00000
        421    36 -109.025027 -109.024856    0.000171   1.000    0.00002    0.00000
        422    36 -109.025027 -109.024855    0.000171   1.000    0.00002    0.00000
        423    35 -109.025026 -109.024855    0.000171   1.000    0.00002    0.00000
        424    35 -109.025025 -109.024855    0.000170   1.000    0.00002    0.00000
        425    35 -109.025024 -109.024856    0.000169   1.000    0.00002    0.00000
        426    37 -109.025023 -109.024856    0.000167   1.000    0.00002    0.00000
        427    35 -109.025023 -109.024857    0.000165   1.000    0.00002    0.00000
        428    35 -109.025022 -109.024858    0.000163   1.000    0.00002    0.00000
        429    35 -109.025020 -109.024860    0.000161   1.000    0.00002    0.00000
        430    37 -109.025019 -109.024861    0.000159   1.000    0.00002    0.00000
        431    37 -109.025018 -109.024862    0.000156   1.000    0.00002    0.00000
        432    36 -109.025017 -109.024863    0.000154   1.000    0.00002    0.00000
        433    35 -109.025016 -109.024864    0.000152   1.000    0.00002    0.00000
        434    36 -109.025015 -109.024864    0.000150   1.000    0.00002    0.00000
        435    35 -109.025013 -109.024865    0.000148   1.000    0.00002    0.00000
        436    35 -109.025012 -109.024866    0.000147   1.000    0.00002    0.00000
        437    37 -109.025011 -109.024866    0.000145   1.000    0.00002    0.00000
        438    36 -109.025010 -109.024866    0.000144   1.000    0.00002    0.00000
        439    35 -109.025009 -109.024866    0.000142   1.000    0.00002    0.00000
        440    35 -109.025007 -109.024866    0.000141   1.000    0.00002    0.00000
        441    36 -109.025006 -109.024866    0.000140   1.000    0.00002    0.00000
        442    35 -109.025005 -109.024866    0.000139   1.000    0.00002    0.00000
        443    35 -109.025004 -109.024866    0.000138   1.000    0.00002    0.00000
        444    35 -109.025002 -109.024865    0.000137   1.000    0.00002    0.00000
        445    35 -109.025001 -109.024865    0.000137   1.000    0.00002    0.00000
        446    35 -109.025000 -109.024864    0.000136   1.000    0.00002    0.00000
        447    35 -109.024999 -109.024864    0.000135   1.000    0.00002    0.00000
        448    36 -109.024998 -109.024863    0.000135   1.000    0.00002    0.00000
        449    34 -109.024997 -109.024862    0.000134   1.000    0.00002    0.00000
        450    35 -109.024995 -109.024861    0.000134   1.000    0.00002    0.00000
        451    35 -109.024994 -109.024860    0.000134   1.000    0.00002    0.00000
        452    35 -109.024993 -109.024859    0.000134   1.000    0.00002    0.00000
        453    35 -109.024992 -109.024858    0.000134   1.000    0.00002    0.00000
        454    35 -109.024991 -109.024856    0.000135   1.000    0.00002    0.00000
        455    35 -109.024990 -109.024855    0.000135   1.000    0.00002    0.00000
        456    36 -109.024989 -109.024853    0.000136   1.000    0.00002    0.00000
        457    35 -109.024988 -109.024869    0.000118   1.000    0.00002    0.00000
        458    35 -109.024986 -109.024873    0.000112   1.000    0.00002    0.00000
        459    35 -109.024984 -109.024877    0.000107   1.000    0.00002    0.00000
        460    35 -109.024982 -109.024883    0.000098   1.000    0.00002    0.00000
        461    35 -109.024980 -109.024893    0.000087   1.000    0.00002    0.00000
        462    35 -109.024978 -109.024906    0.000072   1.000    0.00002    0.00000
        463    35 -109.024976 -109.024919    0.000057   1.000    0.00002    0.00000
        464    36 -109.024974 -109.024932    0.000042   1.000    0.00002    0.00000
        465    35 -109.024972 -109.024942    0.000030   1.000    0.00002    0.00000
        466    35 -109.024969 -109.024948    0.000021   1.000    0.00002    0.00000
        467    36 -109.024966 -109.024951    0.000014   1.000    0.00002    0.00000
        468    35 -109.024962 -109.024951    0.000011   1.000    0.00002    0.00000
        469    35 -109.024959 -109.024947    0.000012   1.000    0.00002    0.00000
        470    35 -109.024955 -109.024940    0.000015   1.000    0.00002    0.00000
        471    35 -109.024951 -109.024931    0.000020   1.000    0.00002    0.00000
        472    36 -109.024948 -109.024920    0.000029   1.000    0.00002    0.00000
        473    35 -109.024946 -109.024907    0.000039   1.000    0.00002    0.00000
        474    35 -109.024943 -109.024892    0.000051   1.000    0.00002    0.00000
        475    35 -109.024941 -109.024877    0.000065   1.000    0.00002    0.00000
        476    35 -109.024940 -109.024861    0.000079   1.000    0.00002    0.00000
        477    36 -109.024939 -109.024844    0.000095   1.000    0.00002    0.00000
        478    35 -109.024938 -109.024828    0.000110   1.000    0.00002    0.00000
        479    35 -109.024938 -109.024813    0.000125   1.000    0.00002    0.00000
        480    35 -109.024938 -109.024799    0.000139   1.000    0.00002    0.00000
        481    36 -109.024939 -109.024786    0.000153   1.000    0.00002    0.00000
        482    35 -109.024939 -109.024775    0.000164   1.000    0.00002    0.00000
        483    36 -109.024940 -109.024765    0.000174   1.000    0.00002    0.00000
        484    35 -109.024940 -109.024758    0.000182   1.000    0.00002    0.00000
        485    35 -109.024941 -109.024753    0.000188   1.000    0.00002    0.00000
        486    35 -109.024941 -109.024749    0.000192   1.000    0.00002    0.00000
        487    36 -109.024942 -109.024748    0.000194   1.000    0.00002    0.00000
        488    35 -109.024942 -109.024748    0.000194   1.000    0.00002    0.00000
        489    35 -109.024943 -109.024750    0.000192   1.000    0.00002    0.00000
        490    35 -109.024943 -109.024754    0.000189   1.000    0.00002    0.00000
        491    35 -109.024943 -109.024759    0.000184   1.000    0.00002    0.00000
        492    35 -109.024943 -109.024765    0.000179   1.000    0.00002    0.00000
        493    35 -109.024943 -109.024772    0.000172   1.000    0.00002    0.00000
        494    35 -109.024943 -109.024779    0.000164   1.000    0.00002    0.00000
        495    35 -109.024943 -109.024787    0.000155   1.000    0.00002    0.00000
        496    35 -109.024942 -109.024796    0.000146   1.000    0.00002    0.00000
        497    36 -109.024942 -109.024805    0.000137   1.000    0.00002    0.00000
        498    35 -109.024941 -109.024814    0.000127   1.000    0.00002    0.00000
        499    35 -109.024940 -109.024822    0.000118   1.000    0.00002    0.00000

        ==> Orbital Optimization <==

            Orbital Optimization did not converge in  20 iterations 
            Total energy change: -3.769311e-02
            Final gradient norm: 1.179994e-04

        500    35 -109.062632 -108.994317    0.068315   6.288    0.00002    0.00000
        501    41 -109.072395 -108.614437    0.457957   6.288    0.00045    0.00489
        502    41 -109.079175 -108.789974    0.289202   6.288    0.00066    0.00345
        503    41 -109.081957 -108.987074    0.094883   6.288    0.00064    0.00264
        504    41 -109.082515 -109.072819    0.009696   6.288    0.00054    0.00247
        505    41 -109.081630 -109.077966    0.003664   6.288    0.00045    0.00249
        506    41 -109.079519 -109.068345    0.011174   6.288    0.00039    0.00251
        507    41 -109.076556 -109.078842    0.002286   6.288    0.00035    0.00243
        508    41 -109.077876 -109.114818    0.036943   6.288    0.00024    0.00226
        509    41 -109.077022 -109.185008    0.107987   6.288    0.00021    0.00205
        510    41 -109.076126 -109.248876    0.172750   6.288    0.00020    0.00183
        511    40 -109.075796 -109.289845    0.214049   6.288    0.00020    0.00168
        512    41 -109.075275 -109.311844    0.236569   6.288    0.00020    0.00157
        513    41 -109.075523 -109.315316    0.239793   6.288    0.00020    0.00150
        514    41 -109.075904 -109.302852    0.226948   6.288    0.00019    0.00146
        515    40 -109.076251 -109.288149    0.211898   6.288    0.00017    0.00143
        516    41 -109.076356 -109.274981    0.198625   6.288    0.00015    0.00139
        517    41 -109.076373 -109.262301    0.185928   6.288    0.00013    0.00135
        518    41 -109.076499 -109.262336    0.185838   6.288    0.00012    0.00127
        519    39 -109.076568 -109.254780    0.178212   6.288    0.00013    0.00121
        520    41 -109.076552 -109.243253    0.166701   6.288    0.00013    0.00115
        521    41 -109.076488 -109.228562    0.152074   6.288    0.00013    0.00112
        522    42 -109.076400 -109.217309    0.140908   6.288    0.00013    0.00105
        523    42 -109.076251 -109.201161    0.124910   6.288    0.00014    0.00100
        524    42 -109.076082 -109.182697    0.106615   6.288    0.00015    0.00094
        525    42 -109.075949 -109.164522    0.088574   6.288    0.00015    0.00090
        526    41 -109.075481 -109.149302    0.073822   6.288    0.00014    0.00085
        527    41 -109.075491 -109.137662    0.062171   6.288    0.00014    0.00081
        528    41 -109.075728 -109.123889    0.048161   6.288    0.00015    0.00078
        529    41 -109.076080 -109.109564    0.033485   6.288    0.00015    0.00075
        530    41 -109.076533 -109.097581    0.021048   6.288    0.00015    0.00072
        531    41 -109.077030 -109.086324    0.009294   6.288    0.00015    0.00070
        532    41 -109.077483 -109.075750    0.001733   6.288    0.00015    0.00067
        533    41 -109.077631 -109.067738    0.009893   6.288    0.00013    0.00066
        534    41 -109.077929 -109.066860    0.011069   6.288    0.00013    0.00063
        535    41 -109.078135 -109.069496    0.008638   6.288    0.00013    0.00060
        536    41 -109.078138 -109.075863    0.002276   6.288    0.00013    0.00056
        537    40 -109.078099 -109.084718    0.006619   6.288    0.00013    0.00052
        538    40 -109.078109 -109.092859    0.014750   6.288    0.00013    0.00050
        539    40 -109.078160 -109.097386    0.019227   6.288    0.00013    0.00048
        540    39 -109.078230 -109.098174    0.019944   6.288    0.00013    0.00046
        541    41 -109.078300 -109.096181    0.017881   6.288    0.00013    0.00044
        542    41 -109.078378 -109.093823    0.015445   6.288    0.00013    0.00042
        543    39 -109.078444 -109.091313    0.012869   6.288    0.00013    0.00041
        544    40 -109.078481 -109.088611    0.010130   6.288    0.00013    0.00040
        545    41 -109.078500 -109.086311    0.007811   6.288    0.00013    0.00039
        546    41 -109.078558 -109.087242    0.008684   6.288    0.00013    0.00038
        547    41 -109.078557 -109.088352    0.009795   6.288    0.00013    0.00037
        548    40 -109.078256 -109.088808    0.010552   6.288    0.00012    0.00037
        549    41 -109.078209 -109.090300    0.012091   6.288    0.00011    0.00036
        550    40 -109.078157 -109.091379    0.013223   6.288    0.00011    0.00036
        551    41 -109.078098 -109.092445    0.014347   6.288    0.00011    0.00035
        552    41 -109.078032 -109.093605    0.015573   6.288    0.00010    0.00034
        553    41 -109.077930 -109.094964    0.017034   6.288    0.00010    0.00034
        554    39 -109.077756 -109.097248    0.019491   6.288    0.00010    0.00033
        555    40 -109.077667 -109.100816    0.023149   6.288    0.00009    0.00032
        556    41 -109.077590 -109.103764    0.026174   6.288    0.00009    0.00031
        557    39 -109.077528 -109.106709    0.029181   6.288    0.00009    0.00031
        558    41 -109.077482 -109.109897    0.032415   6.288    0.00008    0.00030
        559    41 -109.077438 -109.112267    0.034829   6.288    0.00008    0.00029
        560    40 -109.077392 -109.114331    0.036939   6.288    0.00008    0.00028
        561    39 -109.077352 -109.117083    0.039731   6.288    0.00007    0.00027
        562    41 -109.077303 -109.119116    0.041813   6.288    0.00007    0.00026
        563    39 -109.077242 -109.120721    0.043478   6.288    0.00007    0.00026
        564    41 -109.077171 -109.122093    0.044922   6.288    0.00007    0.00026
        565    41 -109.077094 -109.125201    0.048107   6.288    0.00006    0.00026
        566    41 -109.077015 -109.126491    0.049475   6.288    0.00006    0.00026
        567    39 -109.076939 -109.127091    0.050151   6.288    0.00006    0.00026
        568    40 -109.076865 -109.127033    0.050168   6.288    0.00005    0.00026
        569    40 -109.076792 -109.126431    0.049639   6.288    0.00005    0.00026
        570    39 -109.076719 -109.125414    0.048695   6.288    0.00005    0.00026
        571    40 -109.076647 -109.124199    0.047553   6.288    0.00005    0.00026
        572    41 -109.076576 -109.123013    0.046438   6.288    0.00005    0.00025
        573    41 -109.076508 -109.121614    0.045105   6.288    0.00005    0.00025
        574    40 -109.076447 -109.119880    0.043433   6.288    0.00005    0.00024
        575    41 -109.076391 -109.117735    0.041344   6.288    0.00005    0.00023
        576    41 -109.076343 -109.115175    0.038831   6.288    0.00004    0.00023
        577    39 -109.076303 -109.112256    0.035953   6.288    0.00004    0.00022
        578    39 -109.076272 -109.109183    0.032911   6.288    0.00004    0.00021
        579    41 -109.076252 -109.105828    0.029576   6.288    0.00004    0.00021
        580    39 -109.076223 -109.102600    0.026377   6.288    0.00004    0.00020
        581    41 -109.076188 -109.101407    0.025218   6.288    0.00004    0.00020
        582    38 -109.076179 -109.101246    0.025067   6.288    0.00004    0.00018
        583    38 -109.076169 -109.099862    0.023693   6.288    0.00004    0.00017
        584    39 -109.076167 -109.098414    0.022247   6.288    0.00004    0.00017
        585    38 -109.076178 -109.096932    0.020753   6.288    0.00004    0.00016
        586    38 -109.076201 -109.095421    0.019220   6.288    0.00004    0.00016
        587    38 -109.076228 -109.093904    0.017676   6.288    0.00004    0.00015
        588    37 -109.076253 -109.092427    0.016174   6.288    0.00004    0.00015
        589    37 -109.076271 -109.091047    0.014776   6.288    0.00004    0.00015
        590    38 -109.076281 -109.089819    0.013538   6.288    0.00004    0.00015
        591    38 -109.076283 -109.088778    0.012495   6.288    0.00003    0.00015
        592    37 -109.076279 -109.087931    0.011652   6.288    0.00003    0.00015
        593    38 -109.076273 -109.087251    0.010977   6.288    0.00003    0.00015
        594    38 -109.076226 -109.086680    0.010454   6.288    0.00003    0.00015
        595    38 -109.076198 -109.086343    0.010144   6.288    0.00003    0.00016
        596    38 -109.076142 -109.085996    0.009854   6.288    0.00003    0.00016
        597    37 -109.076136 -109.085731    0.009595   6.288    0.00002    0.00016
        598    37 -109.076133 -109.085116    0.008983   6.288    0.00002    0.00016
        599    38 -109.076154 -109.085047    0.008893   6.288    0.00002    0.00016
        600    38 -109.076177 -109.084306    0.008128   6.288    0.00003    0.00015
        601    38 -109.076200 -109.083265    0.007064   6.288    0.00003    0.00015
        602    38 -109.076228 -109.082238    0.006010   6.288    0.00003    0.00014
        603    38 -109.076272 -109.081724    0.005451   6.288    0.00003    0.00014
        604    38 -109.076315 -109.080867    0.004552   6.288    0.00004    0.00013
        605    38 -109.076352 -109.080263    0.003911   6.288    0.00004    0.00013
        606    38 -109.076272 -109.079665    0.003394   6.288    0.00003    0.00012
        607    37 -109.076148 -109.079852    0.003705   6.288    0.00002    0.00012
        608    38 -109.076161 -109.080851    0.004690   6.288    0.00002    0.00011
        609    38 -109.076176 -109.081719    0.005543   6.288    0.00002    0.00011
        610    37 -109.076183 -109.082637    0.006453   6.288    0.00003    0.00011
        611    37 -109.076182 -109.083542    0.007360   6.288    0.00003    0.00010
        612    38 -109.076175 -109.084405    0.008231   6.288    0.00003    0.00010
        613    37 -109.076163 -109.085227    0.009064   6.288    0.00003    0.00010
        614    38 -109.076149 -109.086015    0.009866   6.288    0.00003    0.00010
        615    37 -109.076136 -109.086774    0.010638   6.288    0.00003    0.00010
        616    37 -109.076124 -109.087505    0.011381   6.288    0.00003    0.00010
        617    37 -109.076113 -109.088210    0.012097   6.288    0.00003    0.00011
        618    37 -109.076103 -109.088895    0.012792   6.288    0.00003    0.00011
        619    37 -109.076095 -109.089566    0.013471   6.288    0.00003    0.00011
        620    37 -109.076086 -109.090229    0.014142   6.288    0.00003    0.00011
        621    38 -109.076077 -109.090884    0.014807   6.288    0.00003    0.00011
        622    37 -109.076066 -109.091526    0.015460   6.288    0.00003    0.00011
        623    38 -109.076052 -109.092141    0.016089   6.288    0.00003    0.00011
        624    37 -109.076036 -109.092707    0.016671   6.288    0.00002    0.00011
        625    38 -109.076015 -109.093198    0.017183   6.288    0.00002    0.00011
        626    38 -109.075991 -109.093586    0.017595   6.288    0.00002    0.00011
        627    38 -109.075963 -109.093843    0.017880   6.288    0.00002    0.00011
        628    37 -109.075931 -109.093946    0.018015   6.288    0.00002    0.00010
        629    38 -109.075897 -109.093877    0.017980   6.288    0.00002    0.00010
        630    36 -109.075861 -109.093625    0.017763   6.288    0.00002    0.00010
        631    37 -109.075825 -109.093186    0.017360   6.288    0.00002    0.00009
        632    37 -109.075790 -109.092564    0.016775   6.288    0.00002    0.00009
        633    38 -109.075756 -109.091771    0.016015   6.288    0.00002    0.00009
        634    38 -109.075725 -109.090823    0.015098   6.288    0.00002    0.00009
        635    37 -109.075699 -109.089742    0.014043   6.288    0.00002    0.00008
        636    38 -109.075677 -109.088552    0.012875   6.288    0.00002    0.00008
        637    37 -109.075661 -109.087281    0.011620   6.288    0.00002    0.00008
        638    38 -109.075651 -109.085957    0.010306   6.288    0.00002    0.00008
        639    37 -109.075647 -109.084609    0.008962   6.288    0.00002    0.00008
        640    37 -109.075649 -109.083266    0.007616   6.288    0.00002    0.00008
        641    37 -109.075658 -109.081955    0.006298   6.288    0.00002    0.00009
        642    37 -109.075672 -109.080704    0.005032   6.288    0.00002    0.00009
        643    37 -109.075692 -109.079536    0.003844   6.288    0.00002    0.00009
        644    37 -109.075716 -109.078473    0.002757   6.288    0.00002    0.00009
        645    37 -109.075745 -109.077534    0.001789   6.288    0.00002    0.00009
        646    37 -109.075777 -109.076734    0.000958   6.288    0.00002    0.00009
        647    36 -109.075811 -109.076086    0.000276   6.288    0.00002    0.00009
        648    36 -109.075847 -109.075599    0.000248   6.288    0.00002    0.00009
        649    35 -109.075884 -109.075274    0.000609   6.288    0.00002    0.00009
        650    35 -109.075920 -109.075114    0.000806   6.288    0.00002    0.00009
        651    35 -109.075956 -109.075114    0.000842   6.288    0.00002    0.00009
        652    36 -109.075990 -109.075267    0.000723   6.288    0.00002    0.00009
        653    36 -109.076021 -109.075561    0.000460   6.288    0.00002    0.00008
        654    35 -109.076049 -109.075983    0.000066   6.288    0.00002    0.00008
        655    35 -109.076074 -109.076516    0.000443   6.288    0.00002    0.00008
        656    35 -109.076094 -109.077143    0.001049   6.288    0.00002    0.00008
        657    35 -109.076110 -109.077844    0.001734   6.288    0.00002    0.00007
        658    36 -109.076122 -109.078600    0.002478   6.288    0.00002    0.00007
        659    35 -109.076129 -109.079391    0.003262   6.288    0.00002    0.00007
        660    35 -109.076133 -109.080198    0.004065   6.288    0.00002    0.00007
        661    35 -109.076132 -109.081003    0.004871   6.288    0.00002    0.00007
        662    36 -109.076127 -109.081789    0.005661   6.288    0.00002    0.00007
        663    36 -109.076120 -109.082541    0.006421   6.288    0.00002    0.00007
        664    36 -109.076109 -109.083246    0.007138   6.288    0.00002    0.00007
        665    36 -109.076096 -109.083894    0.007798   6.288    0.00002    0.00007
        666    35 -109.076081 -109.084474    0.008393   6.288    0.00002    0.00007
        667    36 -109.076064 -109.084979    0.008916   6.288    0.00002    0.00007
        668    35 -109.076046 -109.085405    0.009359   6.288    0.00002    0.00007
        669    36 -109.076027 -109.085747    0.009720   6.288    0.00002    0.00007
        670    36 -109.076008 -109.086004    0.009996   6.288    0.00002    0.00007
        671    36 -109.075989 -109.086174    0.010185   6.288    0.00001    0.00008
        672    36 -109.075970 -109.086259    0.010289   6.288    0.00001    0.00008
        673    35 -109.075952 -109.086261    0.010309   6.288    0.00001    0.00008
        674    36 -109.075934 -109.086182    0.010248   6.288    0.00001    0.00007
        675    35 -109.075917 -109.086025    0.010108   6.288    0.00001    0.00007
        676    36 -109.075902 -109.085797    0.009895   6.288    0.00001    0.00007
        677    35 -109.075888 -109.085500    0.009613   6.288    0.00001    0.00007
        678    34 -109.075875 -109.085142    0.009267   6.288    0.00001    0.00007
        679    33 -109.075863 -109.084728    0.008865   6.288    0.00001    0.00007
        680    34 -109.075853 -109.084265    0.008411   6.288    0.00001    0.00007
        681    33 -109.075845 -109.083759    0.007914   6.288    0.00001    0.00007
        682    36 -109.075839 -109.083218    0.007379   6.288    0.00001    0.00006
        683    36 -109.075834 -109.082649    0.006814   6.288    0.00001    0.00006
        684    36 -109.075831 -109.082059    0.006227   6.288    0.00001    0.00006
        685    36 -109.075830 -109.081456    0.005626   6.288    0.00001    0.00006
        686    36 -109.075831 -109.080848    0.005017   6.288    0.00001    0.00006
        687    36 -109.075834 -109.080243    0.004410   6.288    0.00001    0.00006
        688    36 -109.075838 -109.079648    0.003810   6.288    0.00001    0.00006
        689    36 -109.075844 -109.079070    0.003226   6.288    0.00001    0.00006
        690    35 -109.075851 -109.078516    0.002665   6.288    0.00001    0.00006
        691    35 -109.075860 -109.077994    0.002134   6.288    0.00001    0.00006
        692    35 -109.075871 -109.077510    0.001639   6.288    0.00001    0.00006
        693    33 -109.075883 -109.077069    0.001186   6.288    0.00001    0.00006
        694    33 -109.075895 -109.076676    0.000781   6.288    0.00001    0.00006
        695    33 -109.075909 -109.076337    0.000428   6.288    0.00001    0.00006
        696    33 -109.075923 -109.076053    0.000130   6.288    0.00001    0.00006
        697    33 -109.075938 -109.075829    0.000109   6.288    0.00001    0.00006
        698    35 -109.075953 -109.075666    0.000287   6.288    0.00001    0.00006
        699    36 -109.075969 -109.075565    0.000404   6.288    0.00001    0.00006
        700    35 -109.075983 -109.075524    0.000459   6.288    0.00001    0.00006
        701    35 -109.075998 -109.075545    0.000453   6.288    0.00001    0.00006
        702    35 -109.076012 -109.075623    0.000389   6.288    0.00001    0.00006
        703    36 -109.076025 -109.075756    0.000269   6.288    0.00001    0.00006
        704    35 -109.076037 -109.075941    0.000096   6.288    0.00001    0.00005
        705    36 -109.076048 -109.076171    0.000123   6.288    0.00001    0.00005
        706    36 -109.076057 -109.076442    0.000385   6.288    0.00001    0.00005
        707    36 -109.076065 -109.076748    0.000683   6.288    0.00001    0.00005
        708    35 -109.076072 -109.077082    0.001010   6.288    0.00001    0.00005
        709    36 -109.076077 -109.077436    0.001359   6.288    0.00001    0.00005
        710    35 -109.076080 -109.077804    0.001724   6.288    0.00001    0.00005
        711    35 -109.076082 -109.078179    0.002097   6.288    0.00001    0.00005
        712    36 -109.076082 -109.078552    0.002470   6.288    0.00001    0.00005
        713    36 -109.076080 -109.078916    0.002836   6.288    0.00001    0.00005
        714    35 -109.076078 -109.079265    0.003188   6.288    0.00001    0.00005
        715    35 -109.076073 -109.079593    0.003519   6.288    0.00001    0.00005
        716    36 -109.076068 -109.079892    0.003824   6.288    0.00001    0.00005
        717    35 -109.076061 -109.080158    0.004097   6.288    0.00001    0.00005
        718    35 -109.076053 -109.080385    0.004332   6.288    0.00001    0.00005
        719    36 -109.076045 -109.080571    0.004526   6.288    0.00001    0.00005
        720    35 -109.076036 -109.080711    0.004675   6.288    0.00001    0.00005
        721    36 -109.076026 -109.080804    0.004777   6.288    0.00001    0.00004
        722    35 -109.076017 -109.080847    0.004830   6.288    0.00001    0.00004
        723    33 -109.076007 -109.080841    0.004834   6.288    0.00001    0.00004
        724    33 -109.075997 -109.080786    0.004789   6.288    0.00001    0.00004
        725    33 -109.075988 -109.080683    0.004696   6.288    0.00001    0.00004
        726    33 -109.075979 -109.080535    0.004556   6.288    0.00001    0.00004
        727    33 -109.075971 -109.080343    0.004372   6.288    0.00001    0.00004
        728    35 -109.075963 -109.080111    0.004148   6.288    0.00001    0.00004
        729    35 -109.075956 -109.079844    0.003887   6.288    0.00001    0.00004
        730    35 -109.075951 -109.079545    0.003595   6.288    0.00001    0.00004
        731    35 -109.075946 -109.079221    0.003275   6.288    0.00001    0.00003
        732    35 -109.075943 -109.078877    0.002934   6.288    0.00001    0.00003
        733    35 -109.075940 -109.078517    0.002576   6.288    0.00001    0.00003
        734    35 -109.075939 -109.078148    0.002209   6.288    0.00001    0.00003
        735    35 -109.075940 -109.077775    0.001836   6.288    0.00001    0.00003
        736    35 -109.075941 -109.077405    0.001464   6.288    0.00001    0.00003
        737    35 -109.075944 -109.077043    0.001099   6.288    0.00001    0.00003
        738    35 -109.075947 -109.076693    0.000746   6.288    0.00001    0.00003
        739    35 -109.075952 -109.076361    0.000409   6.288    0.00001    0.00003
        740    35 -109.075958 -109.076052    0.000094   6.288    0.00001    0.00003
        741    35 -109.075965 -109.075769    0.000196   6.288    0.00001    0.00003
        742    35 -109.075972 -109.075515    0.000457   6.288    0.00001    0.00003
        743    35 -109.075980 -109.075294    0.000687   6.288    0.00001    0.00003
        744    35 -109.075989 -109.075107    0.000882   6.288    0.00001    0.00003
        745    35 -109.075998 -109.074956    0.001041   6.288    0.00001    0.00003
        746    35 -109.076007 -109.074843    0.001164   6.288    0.00001    0.00003
        747    33 -109.076016 -109.074767    0.001249   6.288    0.00001    0.00003
        748    33 -109.076024 -109.074728    0.001297   6.288    0.00001    0.00003
        749    34 -109.076033 -109.074724    0.001309   6.288    0.00001    0.00003
        750    33 -109.076041 -109.074755    0.001286   6.288    0.00001    0.00002
        751    33 -109.076049 -109.074819    0.001230   6.288    0.00001    0.00002
        752    33 -109.076056 -109.074912    0.001144   6.288    0.00001    0.00002
        753    33 -109.076063 -109.075032    0.001031   6.288    0.00001    0.00002
        754    33 -109.076068 -109.075175    0.000893   6.288    0.00001    0.00002
        755    33 -109.076073 -109.075339    0.000734   6.288    0.00001    0.00002
        756    34 -109.076077 -109.075518    0.000559   6.288    0.00001    0.00002
        757    33 -109.076080 -109.075710    0.000370   6.288    0.00001    0.00002
[...]
        638    24 -109.095497 -109.095606    0.000109   2.781    0.00000    0.00000
        639    24 -109.095496 -109.095593    0.000097   2.781    0.00000    0.00000
        640    25 -109.095495 -109.095579    0.000084   2.781    0.00000    0.00000
        641    25 -109.095494 -109.095564    0.000070   2.781    0.00000    0.00000
        642    24 -109.095493 -109.095548    0.000055   2.781    0.00000    0.00000
        643    26 -109.095493 -109.095533    0.000040   2.781    0.00000    0.00000
        644    26 -109.095493 -109.095517    0.000024   2.781    0.00000    0.00000
        645    26 -109.095493 -109.095501    0.000008   2.781    0.00000    0.00000
        646    26 -109.095493 -109.095486    0.000008   2.781    0.00000    0.00000
        647    26 -109.095494 -109.095471    0.000022   2.781    0.00000    0.00000
        648    27 -109.095494 -109.095458    0.000036   2.781    0.00000    0.00000
        649    26 -109.095495 -109.095446    0.000049   2.781    0.00000    0.00000
        650    27 -109.095496 -109.095435    0.000061   2.781    0.00000    0.00000
        651    26 -109.095497 -109.095425    0.000072   2.781    0.00000    0.00000
        652    27 -109.095498 -109.095417    0.000081   2.781    0.00000    0.00000
        653    26 -109.095500 -109.095411    0.000088   2.781    0.00000    0.00000
        654    27 -109.095501 -109.095407    0.000094   2.781    0.00000    0.00000
        655    24 -109.095502 -109.095404    0.000099   2.781    0.00000    0.00000
        656    26 -109.095504 -109.095403    0.000101   2.781    0.00000    0.00000
        657    27 -109.095505 -109.095403    0.000102   2.781    0.00000    0.00000
        658    26 -109.095506 -109.095406    0.000101   2.781    0.00000    0.00000
        659    27 -109.095507 -109.095409    0.000098   2.781    0.00000    0.00000
        660    26 -109.095508 -109.095415    0.000094   2.781    0.00000    0.00000
        661    27 -109.095509 -109.095422    0.000088   2.781    0.00000    0.00000
        662    27 -109.095510 -109.095430    0.000080   2.781    0.00000    0.00000
        663    26 -109.095511 -109.095439    0.000072   2.781    0.00000    0.00000
        664    26 -109.095512 -109.095450    0.000062   2.781    0.00000    0.00000
        665    27 -109.095512 -109.095461    0.000052   2.781    0.00000    0.00000
        666    24 -109.095513 -109.095472    0.000040   2.781    0.00000    0.00000
        667    24 -109.095513 -109.095484    0.000028   2.781    0.00000    0.00000
        668    25 -109.095513 -109.095496    0.000016   2.781    0.00000    0.00000
        669    25 -109.095512 -109.095508    0.000004   2.781    0.00000    0.00000
        670    25 -109.095512 -109.095520    0.000008   2.781    0.00000    0.00000
        671    23 -109.095512 -109.095531    0.000019   2.781    0.00000    0.00000
        672    23 -109.095511 -109.095541    0.000030   2.781    0.00000    0.00000
        673    23 -109.095510 -109.095550    0.000040   2.781    0.00000    0.00000
        674    21 -109.095509 -109.095558    0.000049   2.781    0.00000    0.00000
        675    23 -109.095509 -109.095565    0.000057   2.781    0.00000    0.00000
        676    21 -109.095508 -109.095571    0.000063   2.781    0.00000    0.00000
        677    21 -109.095507 -109.095575    0.000068   2.781    0.00000    0.00000
        678    21 -109.095506 -109.095578    0.000072   2.781    0.00000    0.00000
        679    20 -109.095505 -109.095579    0.000074   2.781    0.00000    0.00000
        680    23 -109.095504 -109.095578    0.000075   2.781    0.00000    0.00000
        681    23 -109.095503 -109.095577    0.000074   2.781    0.00000    0.00000
        682    24 -109.095502 -109.095574    0.000072   2.781    0.00000    0.00000
        683    24 -109.095501 -109.095569    0.000069   2.781    0.00000    0.00000
        684    24 -109.095500 -109.095564    0.000064   2.781    0.00000    0.00000
        685    25 -109.095499 -109.095558    0.000058   2.781    0.00000    0.00000
        686    25 -109.095499 -109.095551    0.000052   2.781    0.00000    0.00000
        687    25 -109.095499 -109.095543    0.000045   2.781    0.00000    0.00000
        688    25 -109.095498 -109.095535    0.000037   2.781    0.00000    0.00000
        689    24 -109.095498 -109.095527    0.000029   2.781    0.00000    0.00000
        690    25 -109.095498 -109.095519    0.000021   2.781    0.00000    0.00000
        691    24 -109.095498 -109.095510    0.000012   2.781    0.00000    0.00000
        692    25 -109.095498 -109.095502    0.000004   2.781    0.00000    0.00000
        693    23 -109.095499 -109.095495    0.000004   2.781    0.00000    0.00000
        694    24 -109.095499 -109.095488    0.000011   2.781    0.00000    0.00000
        695    23 -109.095499 -109.095481    0.000018   2.781    0.00000    0.00000
        696    23 -109.095500 -109.095476    0.000024   2.781    0.00000    0.00000
        697    25 -109.095500 -109.095471    0.000030   2.781    0.00000    0.00000
        698    23 -109.095501 -109.095467    0.000034   2.781    0.00000    0.00000
        699    20 -109.095502 -109.095463    0.000038   2.781    0.00000    0.00000
        700    20 -109.095502 -109.095461    0.000041   2.781    0.00000    0.00000
        701    20 -109.095503 -109.095460    0.000043   2.781    0.00000    0.00000
        702    20 -109.095503 -109.095459    0.000044   2.781    0.00000    0.00000
        703    21 -109.095504 -109.095459    0.000045   2.781    0.00000    0.00000
        704    23 -109.095505 -109.095460    0.000044   2.781    0.00000    0.00000
        705    20 -109.095505 -109.095462    0.000043   2.781    0.00000    0.00000
        706    20 -109.095506 -109.095464    0.000041   2.781    0.00000    0.00000
        707    20 -109.095506 -109.095467    0.000039   2.781    0.00000    0.00000
        708    20 -109.095506 -109.095470    0.000036   2.781    0.00000    0.00000
        709    19 -109.095507 -109.095474    0.000032   2.781    0.00000    0.00000
        710    20 -109.095507 -109.095478    0.000029   2.781    0.00000    0.00000
        711    20 -109.095507 -109.095483    0.000025   2.781    0.00000    0.00000
        712    20 -109.095507 -109.095487    0.000020   2.781    0.00000    0.00000
        713    20 -109.095507 -109.095491    0.000016   2.781    0.00000    0.00000
        714    20 -109.095507 -109.095496    0.000011   2.781    0.00000    0.00000
        715    20 -109.095507 -109.095500    0.000007   2.781    0.00000    0.00000
        716    20 -109.095507 -109.095504    0.000003   2.781    0.00000    0.00000
        717    20 -109.095507 -109.095508    0.000001   2.781    0.00000    0.00000
        718    20 -109.095507 -109.095512    0.000005   2.781    0.00000    0.00000
        719    20 -109.095506 -109.095515    0.000009   2.781    0.00000    0.00000
        720    20 -109.095506 -109.095518    0.000012   2.781    0.00000    0.00000
        721    20 -109.095506 -109.095520    0.000014   2.781    0.00000    0.00000
        722    20 -109.095505 -109.095522    0.000017   2.781    0.00000    0.00000
        723    20 -109.095505 -109.095524    0.000018   2.781    0.00000    0.00000
        724    20 -109.095505 -109.095525    0.000020   2.781    0.00000    0.00000
        725    17 -109.095504 -109.095525    0.000021   2.781    0.00000    0.00000
        726    17 -109.095504 -109.095525    0.000021   2.781    0.00000    0.00000
        727    17 -109.095504 -109.095525    0.000021   2.781    0.00000    0.00000
        728    17 -109.095503 -109.095524    0.000020   2.781    0.00000    0.00000
        729    20 -109.095503 -109.095522    0.000019   2.781    0.00000    0.00000
        730    20 -109.095503 -109.095521    0.000018   2.781    0.00000    0.00000
        731    20 -109.095503 -109.095519    0.000016   2.781    0.00000    0.00000
        732    20 -109.095503 -109.095517    0.000014   2.781    0.00000    0.00000
        733    20 -109.095502 -109.095514    0.000012   2.781    0.00000    0.00000
        734    20 -109.095502 -109.095512    0.000009   2.781    0.00000    0.00000
        735    20 -109.095502 -109.095509    0.000007   2.781    0.00000    0.00000
        736    20 -109.095502 -109.095507    0.000004   2.781    0.00000    0.00000
        737    20 -109.095502 -109.095504    0.000002   2.781    0.00000    0.00000
        738    20 -109.095502 -109.095501    0.000001   2.781    0.00000    0.00000
        739    20 -109.095503 -109.095499    0.000003   2.781    0.00000    0.00000
        740    20 -109.095503 -109.095497    0.000006   2.781    0.00000    0.00000
        741    20 -109.095503 -109.095495    0.000008   2.781    0.00000    0.00000
        742    20 -109.095503 -109.095493    0.000010   2.781    0.00000    0.00000
        743    20 -109.095503 -109.095492    0.000011   2.781    0.00000    0.00000
        744    20 -109.095503 -109.095491    0.000013   2.781    0.00000    0.00000
        745    23 -109.095504 -109.095490    0.000014   2.781    0.00000    0.00000
        746    20 -109.095504 -109.095489    0.000015   2.781    0.00000    0.00000
        747    23 -109.095504 -109.095489    0.000015   2.781    0.00000    0.00000
        748    23 -109.095504 -109.095489    0.000015   2.781    0.00000    0.00000
        749    23 -109.095504 -109.095489    0.000015   2.781    0.00000    0.00000
        750    23 -109.095505 -109.095490    0.000015   2.781    0.00000    0.00000
        751    22 -109.095505 -109.095491    0.000014   2.781    0.00000    0.00000
        752    21 -109.095505 -109.095492    0.000013   2.781    0.00000    0.00000
        753    22 -109.095505 -109.095493    0.000012   2.781    0.00000    0.00000
        754    22 -109.095505 -109.095494    0.000011   2.781    0.00000    0.00000
        755    23 -109.095505 -109.095496    0.000010   2.781    0.00000    0.00000

        ==> Orbital Optimization <==

            Orbital Optimization converged in   1 iterations 
            Total energy change: -6.935664e-09
            Final gradient norm: 7.730203e-05


      v2RDM iterations converged!

      v2RDM total spin [S(S+1)]:            -0.000001
    * v2RDM total energy:           -109.095505119805


 # Natural Orbital Occupation Numbers (alpha) #
 Irrep: 1
      1:  1.0000000
      2:  1.0000000
      3:  0.9899459
      4:  0.0000000
      5:  0.0000000
      6:  0.0000000
      7:  0.0000000

 Irrep: 2
      1:  0.0000000

 Irrep: 3
      1:  0.0345851
      2:  0.0000000
      3:  0.0000000

 Irrep: 4
      1:  0.0345851
      2:  0.0000000
      3:  0.0000000

 Irrep: 5
      1:  0.0000000

 Irrep: 6
      1:  1.0000000
      2:  1.0000000
      3:  0.0100563
      4:  0.0000000
      5:  0.0000000
      6:  0.0000000
      7:  0.0000000

 Irrep: 7
      1:  0.9654138
      2:  0.0000000
      3:  0.0000000

 Irrep: 8
      1:  0.9654137
      2:  0.0000000
      3:  0.0000000


 # Natural Orbital Occupation Numbers (beta) #
 Irrep: 1
      1:  1.0000000
      2:  1.0000000
      3:  0.9899459
      4:  0.0000000
      5:  0.0000000
      6:  0.0000000
      7:  0.0000000

 Irrep: 2
      1:  0.0000000

 Irrep: 3
      1:  0.0345851
      2:  0.0000000
      3:  0.0000000

 Irrep: 4
      1:  0.0345851
      2:  0.0000000
      3:  0.0000000

 Irrep: 5
      1:  0.0000000

 Irrep: 6
      1:  1.0000000
      2:  1.0000000
      3:  0.0100563
      4:  0.0000000
      5:  0.0000000
      6:  0.0000000
      7:  0.0000000

 Irrep: 7
      1:  0.9654138
      2:  0.0000000
      3:  0.0000000

 Irrep: 8
      1:  0.9654137
      2:  0.0000000
      3:  0.0000000


  ==> Iteration count <==

      Microiterations:                   18771
      Macroiterations:                     756
      Orbital optimization steps:            2

  ==> Wall time <==

      Microiterations:                    2.41 s
      Macroiterations:                    0.77 s
      Orbital optimization:               0.03 s
      Total:                              3.34 s


  ==> Back-transforming MO-basis TPDMs <==

        Sorting File: MO TPDM (AA|AA) nbuckets = 1
        Sorting File: MO TPDM (AA|aa) nbuckets = 1
        Sorting File: MO TPDM (aa|aa) nbuckets = 1

	Starting first half-transformation.
	Sorting half-transformed TPDMs.
	First half integral transformation complete.

*** tstop() called on ed7 at Tue Feb 28 13:23:58 2017
Module time:
	user time   =      20.19 seconds =       0.34 minutes
	system time =       0.46 seconds =       0.01 minutes
	total time  =          3 seconds =       0.05 minutes
Total time:
	user time   =     193.58 seconds =       3.23 minutes
	system time =       4.28 seconds =       0.07 minutes
	total time  =         33 seconds =       0.55 minutes
  Cartesian Displacement SALCs
  By SALC:
  Number of SALCs: 1, nirreps: 1
  Project out translations: False
  Project out rotations: False
	irrep = 0, ncomponent = 2
		0: atom 0, direction z, coef 0.707107
		1: atom 1, direction z, coef -0.707107

  By Atomic Center:
  Number of atomic centers: 2
   Atomic Center 0:
	x component, size = 0
	y component, size = 0
	z component, size = 1
		0: salc 0, irrep 0, coef 0.707107
   Atomic Center 1:
	x component, size = 0
	y component, size = 0
	z component, size = 1
		0: salc 0, irrep 0, coef -0.707107

    Molecular point group: d2h
    Full point group: D_inf_h

    Geometry (in Bohr), charge = 0, multiplicity = 1:

       Center              X                  Y                   Z       
    ------------   -----------------  -----------------  -----------------
           N          0.000000000000     0.000000000000    -1.056177130710
           N          0.000000000000     0.000000000000     1.056177130710



  -Nuclear Repulsion Energy 1st Derivatives:
     Atom            X                  Y                   Z
    ------   -----------------  -----------------  -----------------
       1        0.000000000000     0.000000000000    10.981522852009
       2        0.000000000000     0.000000000000   -10.981522852009


  -One-electron contribution to gradient:
     Atom            X                  Y                   Z
    ------   -----------------  -----------------  -----------------
       1        0.000000000000     0.000000000000   -26.935687206346
       2        0.000000000000     0.000000000000    26.935687206346


  -Lagrangian contribution to gradient:
     Atom            X                  Y                   Z
    ------   -----------------  -----------------  -----------------
       1        0.000000000000     0.000000000000     0.813073743557
       2        0.000000000000     0.000000000000    -0.813073743557


  -Two-electron contribution to gradient:
     Atom            X                  Y                   Z
    ------   -----------------  -----------------  -----------------
       1        0.000000000000     0.000000000000    15.141114443107
       2        0.000000000000     0.000000000000   -15.141114443107


  -Total gradient:
     Atom            X                  Y                   Z
    ------   -----------------  -----------------  -----------------
       1        0.000000000000     0.000000000000     0.000023832327
       2        0.000000000000     0.000000000000    -0.000023832327


			-----------------------------------------
			 OPTKING 2.0: for geometry optimizations 
			  - R.A. King,  Bethel University        
			-----------------------------------------

	Previous internal coordinate definitions found.
	---Fragment 1 Geometry and Gradient---
	 N           0.0000000000        0.0000000000       -1.0561771307
	 N           0.0000000000        0.0000000000        1.0561771307
	             0.0000000000        0.0000000000        0.0000238323
	             0.0000000000        0.0000000000       -0.0000238323

	---Fragment 1 Intrafragment Coordinates---
	 - Coordinate -           - BOHR/RAD -       - ANG/DEG -
	 R(1,2)           =         2.112354	       1.117810

	Current energy   :      -109.0955051198

	Energy change for the previous step:
		Projected    :        -0.0000000824
		Actual       :        -0.0000022098

	Performing BFGS update.
	Previous computed or guess Hessian on step 1.
	Denominators (dg)(dq) or (dq)(dq) are very small.
	 Skipping Hessian update for step 3.
	Steps to be used in Hessian update: 2 1
	Taking RFO optimization step.
	Going to follow RFO solution 1.
	Using RFO vector 1.
	Norm of target step-size    0.00002
	Projected energy change by RFO approximation:        -0.0000000002

	Back-transformation to cartesian coordinates...
	Successfully converged to displaced geometry.

	--- Internal Coordinate Step in ANG or DEG, aJ/ANG or AJ/DEG ---
	 ---------------------------------------------------------------------------
	   Coordinate                Previous        Force       Change         New 
	   ----------                --------       ------       ------       ------
	    1 R(1,2)          =      1.117810     0.000196     0.000008     1.117818
	 ---------------------------------------------------------------------------
	Successfully symmetrized geometry.

  ==> Convergence Check <==

  Measures of convergence in internal coordinates in au.
  Criteria marked as inactive (o), active & met (*), and active & unmet ( ).
  ---------------------------------------------------------------------------------------------
   Step     Total Energy     Delta E     MAX Force     RMS Force      MAX Disp      RMS Disp   
  ---------------------------------------------------------------------------------------------
    Convergence Criteria    1.00e-06 *    3.00e-04 *             o    1.20e-03 *             o
  ---------------------------------------------------------------------------------------------
      4    -109.09550512   -2.21e-06      2.38e-05 *    2.38e-05 o    1.56e-05 *    1.56e-05 o  ~
  ---------------------------------------------------------------------------------------------


  **** Optimization is complete! (in 4 steps) ****

  ==> Optimization Summary <==

  Measures of convergence in internal coordinates in au.
  --------------------------------------------------------------------------------------------------------------- ~
   Step         Total Energy             Delta E       MAX Force       RMS Force        MAX Disp        RMS Disp  ~
  --------------------------------------------------------------------------------------------------------------- ~
      1    -109.094654993828   -109.094654993828      0.05155369      0.05155369      0.02914780      0.02914780  ~
      2    -109.095489601324     -0.000834607497      0.00652706      0.00652706      0.00422519      0.00422519  ~
      3    -109.095502910048     -0.000013308724      0.00043277      0.00043277      0.00028252      0.00028252  ~
      4    -109.095505119805     -0.000002209756      0.00002383      0.00002383      0.00001557      0.00001557  ~
  --------------------------------------------------------------------------------------------------------------- ~

	Writing optimization data to binary file.
	Final energy is   -109.0955051198046
	Final (previous) structure:
	Cartesian Geometry (in Angstrom)
	    N     0.0000000000   0.0000000000  -0.5589048658
	    N     0.0000000000   0.0000000000   0.5589048658
	Saving final (previous) structure.
			--------------------------
			 OPTKING Finished Execution 
			--------------------------

    Final optimized geometry and variables:
    Molecular point group: d2h
    Full point group: D_inf_h

    Geometry (in Angstrom), charge = 0, multiplicity = 1:

    N       
    N             1    1.117810

	Cleaning optimization helper files.
	Nuclear repulsion energy..........................................PASSED
	SCF total energy..................................................PASSED
	v2RDM-CASSCF total energy.........................................PASSED

*** Psi4 exiting successfully. Buy a developer a beer!
