[Molden Format]
[Atoms] (AU)
O    1    8         0.000000000000       0.000000000000      -0.129476890157
H    2    1         0.000000000000      -1.494186750504       1.027446102928
H    3    1         0.000000000000       1.494186750504       1.027446102928
[GTO]
  1 0
 s    3  1.00
      130.7093200000         4.2519432829
       23.8088610000         4.1122937184
        6.4436083000         1.2816225326
 s    3  1.00
        5.0331513000        -0.2394130030
        1.1695961000         0.3202342291
        0.3803890000         0.2416855708
 p    3  1.00
        5.0331513000         1.6754501181
        1.1695961000         1.0535680080
        0.3803890000         0.1669028981

  2 0
 s    3  1.00
        3.4252509100         0.2769343610
        0.6239137300         0.2678388518
        0.1688554000         0.0834736696

  3 0
 s    3  1.00
        3.4252509100         0.2769343610
        0.6239137300         0.2678388518
        0.1688554000         0.0834736696

[5d]
[9g]

[MO]
 Sym= A1
 Ene=         0.0000000000
 Spin= Alpha
 Occup=  1.0000
  1       1.000252990281
  2       0.000847141962
  3       0.000000000000
  4       0.000000000000
  5       0.010269483291
  6      -0.005245232130
  7      -0.005245232130
 Sym= A1
 Ene=         0.0000000000
 Spin= Alpha
 Occup=  0.9986
  1      -0.229546530764
  2       0.997017074099
  3       0.000000000000
  4       0.000000000000
  5      -0.267174486240
  6      -0.006626067125
  7      -0.006626067125
 Sym= A1
 Ene=         0.0000000000
 Spin= Alpha
 Occup=  0.9849
  1      -0.026106838868
  2      -0.037432116264
  3       0.000000000000
  4       0.000000000000
  5       0.738657842500
  6       0.322023465667
  7       0.322023465667
 Sym= A1
 Ene=         0.0000000000
 Spin= Alpha
 Occup=  0.0165
  1       0.125368208971
  2      -0.812532865789
  3       0.000000000000
  4       0.000000000000
  5      -0.730083912382
  6       0.772195033515
  7       0.772195033515
 Sym= B1
 Ene=         0.0000000000
 Spin= Alpha
 Occup=  0.9988
  1       0.000000000000
  2       0.000000000000
  3       1.000000000000
  4       0.000000000000
  5       0.000000000000
  6       0.000000000000
  7       0.000000000000
 Sym= B2
 Ene=         0.0000000000
 Spin= Alpha
 Occup=  0.9842
  1       0.000000000000
  2       0.000000000000
  3       0.000000000000
  4      -0.607313674169
  5       0.000000000000
  6       0.446067995940
  7      -0.446067995940
 Sym= B2
 Ene=         0.0000000000
 Spin= Alpha
 Occup=  0.0170
  1       0.000000000000
  2       0.000000000000
  3       0.000000000000
  4      -0.965826606100
  5       0.000000000000
  6      -0.802697016026
  7       0.802697016026
 Sym= A1
 Ene=         0.0000000000
 Spin= Beta
 Occup=  1.0000
  1       1.000252990281
  2       0.000847141962
  3       0.000000000000
  4       0.000000000000
  5       0.010269483291
  6      -0.005245232130
  7      -0.005245232130
 Sym= A1
 Ene=         0.0000000000
 Spin= Beta
 Occup=  0.9986
  1      -0.229547229330
  2       0.997016109715
  3       0.000000000000
  4       0.000000000000
  5      -0.267154825868
  6      -0.006617537497
  7      -0.006617537497
 Sym= A1
 Ene=         0.0000000000
 Spin= Beta
 Occup=  0.9849
  1      -0.026100706208
  2      -0.037458820502
  3       0.000000000000
  4       0.000000000000
  5       0.738664759311
  6       0.322023836354
  7       0.322023836354
 Sym= A1
 Ene=         0.0000000000
 Spin= Beta
 Occup=  0.0165
  1       0.125368206832
  2      -0.812532818474
  3       0.000000000000
  4       0.000000000000
  5      -0.730084108765
  6       0.772194952074
  7       0.772194952074
 Sym= B1
 Ene=         0.0000000000
 Spin= Beta
 Occup=  0.9988
  1       0.000000000000
  2       0.000000000000
  3       1.000000000000
  4       0.000000000000
  5       0.000000000000
  6       0.000000000000
  7       0.000000000000
 Sym= B2
 Ene=         0.0000000000
 Spin= Beta
 Occup=  0.9842
  1       0.000000000000
  2       0.000000000000
  3       0.000000000000
  4      -0.607307512017
  5       0.000000000000
  6       0.446073117276
  7      -0.446073117276
 Sym= B2
 Ene=         0.0000000000
 Spin= Beta
 Occup=  0.0170
  1       0.000000000000
  2       0.000000000000
  3       0.000000000000
  4      -0.965830480846
  5       0.000000000000
  6      -0.802694170020
  7       0.802694170020
[Molden Format]
[Atoms] (AU)
O    1    8         0.000000000000       0.000000000000      -0.129476890157
H    2    1         0.000000000000      -1.494186750504       1.027446102928
H    3    1         0.000000000000       1.494186750504       1.027446102928
[GTO]
  1 0
 s    3  1.00
      130.7093200000         0.1543289700
       23.8088610000         0.5353281400
        6.4436083000         0.4446345400
 s    3  1.00
        5.0331513000        -0.0999672300
        1.1695961000         0.3995128300
        0.3803890000         0.7001154700
 p    3  1.00
        5.0331513000         0.1559162700
        1.1695961000         0.6076837200
        0.3803890000         0.3919573900

  2 0
 s    3  1.00
        3.4252509100         0.1543289700
        0.6239137300         0.5353281400
        0.1688554000         0.4446345400

  3 0
 s    3  1.00
        3.4252509100         0.1543289700
        0.6239137300         0.5353281400
        0.1688554000         0.4446345400

[5D]
[9G]

[MO]
 Sym= A1
 Ene=         0.0000000000
 Spin= Alpha
 Occup=  1.0000
  1       1.000252585582
  2       0.000848943990
  3       0.000000000000
  4       0.000000000000
  5       0.010268863678
  6      -0.005245345226
  7      -0.005245345226
 Sym= A1
 Ene=         0.0000000000
 Spin= Alpha
 Occup=  0.9986
  1      -0.230375977965
  2       1.002362505608
  3       0.000000000000
  4       0.000000000000
  5      -0.262235382107
  6      -0.011685651809
  7      -0.011685651809
 Sym= A1
 Ene=         0.0000000000
 Spin= Alpha
 Occup=  0.9849
  1      -0.022870174286
  2      -0.058352629141
  3       0.000000000000
  4       0.000000000000
  5       0.719571387319
  6       0.341835775132
  7       0.341835775132
 Sym= A1
 Ene=         0.0000000000
 Spin= Alpha
 Occup=  0.0165
  1       0.124479067115
  2      -0.804685182122
  3       0.000000000000
  4       0.000000000000
  5      -0.750646234355
  6       0.763570516839
  7       0.763570516839
 Sym= B1
 Ene=         0.0000000000
 Spin= Alpha
 Occup=  0.9988
  1       0.000000000000
  2       0.000000000000
  3       1.000000000000
  4       0.000000000000
  5       0.000000000000
  6       0.000000000000
  7       0.000000000000
 Sym= B2
 Ene=         0.0000000000
 Spin= Alpha
 Occup=  0.9842
  1       0.000000000000
  2       0.000000000000
  3       0.000000000000
  4      -0.603386994366
  5       0.000000000000
  6       0.449323615474
  7      -0.449323615474
 Sym= B2
 Ene=         0.0000000000
 Spin= Alpha
 Occup=  0.0170
  1       0.000000000000
  2       0.000000000000
  3       0.000000000000
  4      -0.968284600163
  5       0.000000000000
  6      -0.800879170111
  7       0.800879170111
 Sym= A1
 Ene=         0.0000000000
 Spin= Beta
 Occup=  1.0000
  1       1.000252585582
  2       0.000848943990
  3       0.000000000000
  4       0.000000000000
  5       0.010268863678
  6      -0.005245345226
  7      -0.005245345226
 Sym= A1
 Ene=         0.0000000000
 Spin= Beta
 Occup=  0.9986
  1      -0.230376696214
  2       1.002361021947
  3       0.000000000000
  4       0.000000000000
  5      -0.262213766593
  6      -0.011675732279
  7      -0.011675732279
 Sym= A1
 Ene=         0.0000000000
 Spin= Beta
 Occup=  0.9849
  1      -0.022863368270
  2      -0.058382158569
  3       0.000000000000
  4       0.000000000000
  5       0.719579417037
  6       0.341835880216
  7       0.341835880216
 Sym= A1
 Ene=         0.0000000000
 Spin= Beta
 Occup=  0.0165
  1       0.124478988099
  2      -0.804684888354
  3       0.000000000000
  4       0.000000000000
  5      -0.750646087990
  6       0.763570621539
  7       0.763570621539
 Sym= B1
 Ene=         0.0000000000
 Spin= Beta
 Occup=  0.9988
  1       0.000000000000
  2       0.000000000000
  3       1.000000000000
  4       0.000000000000
  5       0.000000000000
  6       0.000000000000
  7       0.000000000000
 Sym= B2
 Ene=         0.0000000000
 Spin= Beta
 Occup=  0.9842
  1       0.000000000000
  2       0.000000000000
  3       0.000000000000
  4      -0.603393168565
  5       0.000000000000
  6       0.449318508705
  7      -0.449318508705
 Sym= B2
 Ene=         0.0000000000
 Spin= Beta
 Occup=  0.0170
  1       0.000000000000
  2       0.000000000000
  3       0.000000000000
  4      -0.968280752681
  5       0.000000000000
  6      -0.800882035181
  7       0.800882035181
[Molden Format]
[Atoms] (AU)
O    1    8         0.000000000000       0.000000000000      -0.129476890157
H    2    1         0.000000000000      -1.494186750504       1.027446102928
H    3    1         0.000000000000       1.494186750504       1.027446102928
[GTO]
  1 0
 s    3  1.00
      130.7093200000         0.1543289700
       23.8088610000         0.5353281400
        6.4436083000         0.4446345400
 s    3  1.00
        5.0331513000        -0.0999672300
        1.1695961000         0.3995128300
        0.3803890000         0.7001154700
 p    3  1.00
        5.0331513000         0.1559162700
        1.1695961000         0.6076837200
        0.3803890000         0.3919573900

  2 0
 s    3  1.00
        3.4252509100         0.1543289700
        0.6239137300         0.5353281400
        0.1688554000         0.4446345400

  3 0
 s    3  1.00
        3.4252509100         0.1543289700
        0.6239137300         0.5353281400
        0.1688554000         0.4446345400

[5D]
[9G]

[MO]
 Sym= A1
 Ene=         0.0000000000
 Spin= Alpha
 Occup=  1.0000
  1       1.000251748802
  2       0.000852691930
  3       0.000000000000
  4       0.000000000000
  5       0.010267452838
  6      -0.005245624651
  7      -0.005245624651
 Sym= A1
 Ene=         0.0000000000
 Spin= Alpha
 Occup=  0.9986
  1      -0.230379712580
  2       1.002362254520
  3       0.000000000000
  4       0.000000000000
  5      -0.262233509860
  6      -0.011684604668
  7      -0.011684604668
 Sym= A1
 Ene=         0.0000000000
 Spin= Alpha
 Occup=  0.9849
  1      -0.022868929545
  2      -0.058355179988
  3       0.000000000000
  4       0.000000000000
  5       0.719572326267
  6       0.341835593673
  7       0.341835593673
 Sym= A1
 Ene=         0.0000000000
 Spin= Alpha
 Occup=  0.0165
  1       0.124479107962
  2      -0.804685305948
  3       0.000000000000
  4       0.000000000000
  5      -0.750646007635
  6       0.763570612180
  7       0.763570612180
 Sym= B1
 Ene=         0.0000000000
 Spin= Alpha
 Occup=  0.9988
  1       0.000000000000
  2       0.000000000000
  3       1.000000000000
  4       0.000000000000
  5       0.000000000000
  6       0.000000000000
  7       0.000000000000
 Sym= B2
 Ene=         0.0000000000
 Spin= Alpha
 Occup=  0.9842
  1       0.000000000000
  2       0.000000000000
  3       0.000000000000
  4      -0.603386714832
  5       0.000000000000
  6       0.449323846680
  7      -0.449323846680
 Sym= B2
 Ene=         0.0000000000
 Spin= Alpha
 Occup=  0.0170
  1       0.000000000000
  2       0.000000000000
  3       0.000000000000
  4      -0.968284774355
  5       0.000000000000
  6      -0.800879040396
  7       0.800879040396
 Sym= A1
 Ene=         0.0000000000
 Spin= Beta
 Occup=  1.0000
  1       1.000251748802
  2       0.000852691930
  3       0.000000000000
  4       0.000000000000
  5       0.010267452838
  6      -0.005245624651
  7      -0.005245624651
 Sym= A1
 Ene=         0.0000000000
 Spin= Beta
 Occup=  0.9986
  1      -0.230380309168
  2       1.002360931175
  3       0.000000000000
  4       0.000000000000
  5      -0.262215298541
  6      -0.011676152451
  7      -0.011676152451
 Sym= A1
 Ene=         0.0000000000
 Spin= Beta
 Occup=  0.9849
  1      -0.022863217741
  2      -0.058379870808
  3       0.000000000000
  4       0.000000000000
  5       0.719579372630
  6       0.341835420724
  7       0.341835420724
 Sym= A1
 Ene=         0.0000000000
 Spin= Beta
 Occup=  0.0165
  1       0.124479053048
  2      -0.804685163443
  3       0.000000000000
  4       0.000000000000
  5      -0.750645614720
  6       0.763570818900
  7       0.763570818900
 Sym= B1
 Ene=         0.0000000000
 Spin= Beta
 Occup=  0.9988
  1       0.000000000000
  2       0.000000000000
  3       1.000000000000
  4       0.000000000000
  5       0.000000000000
  6       0.000000000000
  7       0.000000000000
 Sym= B2
 Ene=         0.0000000000
 Spin= Beta
 Occup=  0.9842
  1       0.000000000000
  2       0.000000000000
  3       0.000000000000
  4      -0.603392889890
  5       0.000000000000
  6       0.449318739202
  7      -0.449318739202
 Sym= B2
 Ene=         0.0000000000
 Spin= Beta
 Occup=  0.0170
  1       0.000000000000
  2       0.000000000000
  3       0.000000000000
  4      -0.968280926340
  5       0.000000000000
  6      -0.800881905865
  7       0.800881905865
[Molden Format]
[Atoms] (AU)
O    1    8         0.000000000000       0.000000000000      -0.129476890157
H    2    1         0.000000000000      -1.494186750504       1.027446102928
H    3    1         0.000000000000       1.494186750504       1.027446102928
[GTO]
  1 0
 s    3  1.00
      130.7093200000         0.1543289700
       23.8088610000         0.5353281400
        6.4436083000         0.4446345400
 s    3  1.00
        5.0331513000        -0.0999672300
        1.1695961000         0.3995128300
        0.3803890000         0.7001154700
 p    3  1.00
        5.0331513000         0.1559162700
        1.1695961000         0.6076837200
        0.3803890000         0.3919573900

  2 0
 s    3  1.00
        3.4252509100         0.1543289700
        0.6239137300         0.5353281400
        0.1688554000         0.4446345400

  3 0
 s    3  1.00
        3.4252509100         0.1543289700
        0.6239137300         0.5353281400
        0.1688554000         0.4446345400

[5D]
[9G]

[MO]
 Sym= A1
 Ene=         0.0000000000
 Spin= Alpha
 Occup=  1.0000
  1       1.000252909787
  2       0.000847512503
  3       0.000000000000
  4       0.000000000000
  5       0.010269318045
  6      -0.005245282280
  7      -0.005245282280
 Sym= A1
 Ene=         0.0000000000
 Spin= Alpha
 Occup=  0.9986
  1      -0.230374674719
  2       1.002362301447
  3       0.000000000000
  4       0.000000000000
  5      -0.262232042646
  6      -0.011684162904
  7      -0.011684162904
 Sym= A1
 Ene=         0.0000000000
 Spin= Alpha
 Occup=  0.9849
  1      -0.022869224298
  2      -0.058357346388
  3       0.000000000000
  4       0.000000000000
  5       0.719572425226
  6       0.341835983708
  7       0.341835983708
 Sym= A1
 Ene=         0.0000000000
 Spin= Alpha
 Occup=  0.0165
  1       0.124479048436
  2      -0.804685095856
  3       0.000000000000
  4       0.000000000000
  5      -0.750646399819
  6       0.763570446681
  7       0.763570446681
 Sym= B1
 Ene=         0.0000000000
 Spin= Alpha
 Occup=  0.9988
  1       0.000000000000
  2       0.000000000000
  3       1.000000000000
  4       0.000000000000
  5       0.000000000000
  6       0.000000000000
  7       0.000000000000
 Sym= B2
 Ene=         0.0000000000
 Spin= Alpha
 Occup=  0.9842
  1       0.000000000000
  2       0.000000000000
  3       0.000000000000
  4      -0.603387084166
  5       0.000000000000
  6       0.449323541199
  7      -0.449323541199
 Sym= B2
 Ene=         0.0000000000
 Spin= Alpha
 Occup=  0.0170
  1       0.000000000000
  2       0.000000000000
  3       0.000000000000
  4      -0.968284544204
  5       0.000000000000
  6      -0.800879211782
  7       0.800879211782
 Sym= A1
 Ene=         0.0000000000
 Spin= Beta
 Occup=  1.0000
  1       1.000252909787
  2       0.000847512503
  3       0.000000000000
  4       0.000000000000
  5       0.010269318045
  6      -0.005245282280
  7      -0.005245282280
 Sym= A1
 Ene=         0.0000000000
 Spin= Beta
 Occup=  0.9986
  1      -0.230375301424
  2       1.002360905627
  3       0.000000000000
  4       0.000000000000
  5      -0.262212896301
  6      -0.011675270949
  7      -0.011675270949
 Sym= A1
 Ene=         0.0000000000
 Spin= Beta
 Occup=  0.9849
  1      -0.022863197574
  2      -0.058383443171
  3       0.000000000000
  4       0.000000000000
  5       0.719579710762
  6       0.341835928023
  7       0.341835928023
 Sym= A1
 Ene=         0.0000000000
 Spin= Beta
 Occup=  0.0165
  1       0.124478995665
  2      -0.804684941555
  3       0.000000000000
  4       0.000000000000
  5      -0.750646104213
  6       0.763570607623
  7       0.763570607623
 Sym= B1
 Ene=         0.0000000000
 Spin= Beta
 Occup=  0.9988
  1       0.000000000000
  2       0.000000000000
  3       1.000000000000
  4       0.000000000000
  5       0.000000000000
  6       0.000000000000
  7       0.000000000000
 Sym= B2
 Ene=         0.0000000000
 Spin= Beta
 Occup=  0.9842
  1       0.000000000000
  2       0.000000000000
  3       0.000000000000
  4      -0.603393270841
  5       0.000000000000
  6       0.449318424110
  7      -0.449318424110
 Sym= B2
 Ene=         0.0000000000
 Spin= Beta
 Occup=  0.0170
  1       0.000000000000
  2       0.000000000000
  3       0.000000000000
  4      -0.968280688947
  5       0.000000000000
  6      -0.800882082641
  7       0.800882082641
[Molden Format]
[Atoms] (AU)
O    1    8         0.000000000000       0.000000000000      -0.129476890157
H    2    1         0.000000000000      -1.494186750504       1.027446102928
H    3    1         0.000000000000       1.494186750504       1.027446102928
[GTO]
  1 0
 s    3  1.00
      130.7093200000         0.1543289700
       23.8088610000         0.5353281400
        6.4436083000         0.4446345400
 s    3  1.00
        5.0331513000        -0.0999672300
        1.1695961000         0.3995128300
        0.3803890000         0.7001154700
 p    3  1.00
        5.0331513000         0.1559162700
        1.1695961000         0.6076837200
        0.3803890000         0.3919573900

  2 0
 s    3  1.00
        3.4252509100         0.1543289700
        0.6239137300         0.5353281400
        0.1688554000         0.4446345400

  3 0
 s    3  1.00
        3.4252509100         0.1543289700
        0.6239137300         0.5353281400
        0.1688554000         0.4446345400

[5D]
[9G]

[MO]
 Sym= A1
 Ene=         0.0000000000
 Spin= Alpha
 Occup=  1.0000
  1       1.000252399488
  2       0.000849771957
  3       0.000000000000
  4       0.000000000000
  5       0.010268552648
  6      -0.005245393258
  7      -0.005245393258
 Sym= A1
 Ene=         0.0000000000
 Spin= Alpha
 Occup=  0.9986
  1      -0.230376934312
  2       1.002362399915
  3       0.000000000000
  4       0.000000000000
  5      -0.262231876507
  6      -0.011684211050
  7      -0.011684211050
 Sym= A1
 Ene=         0.0000000000
 Spin= Alpha
 Occup=  0.9849
  1      -0.022868917292
  2      -0.058357669011
  3       0.000000000000
  4       0.000000000000
  5       0.719572274352
  6       0.341836172824
  7       0.341836172824
 Sym= A1
 Ene=         0.0000000000
 Spin= Alpha
 Occup=  0.0165
  1       0.124479023476
  2      -0.804684947418
  3       0.000000000000
  4       0.000000000000
  5      -0.750646612957
  6       0.763570360518
  7       0.763570360518
 Sym= B1
 Ene=         0.0000000000
 Spin= Alpha
 Occup=  0.9988
  1       0.000000000000
  2       0.000000000000
  3       1.000000000000
  4       0.000000000000
  5       0.000000000000
  6       0.000000000000
  7       0.000000000000
 Sym= B2
 Ene=         0.0000000000
 Spin= Alpha
 Occup=  0.9842
  1       0.000000000000
  2       0.000000000000
  3       0.000000000000
  4      -0.603387259692
  5       0.000000000000
  6       0.449323396020
  7      -0.449323396020
 Sym= B2
 Ene=         0.0000000000
 Spin= Alpha
 Occup=  0.0170
  1       0.000000000000
  2       0.000000000000
  3       0.000000000000
  4      -0.968284434825
  5       0.000000000000
  6      -0.800879293233
  7       0.800879293233
 Sym= A1
 Ene=         0.0000000000
 Spin= Beta
 Occup=  1.0000
  1       1.000252399488
  2       0.000849771957
  3       0.000000000000
  4       0.000000000000
  5       0.010268552648
  6      -0.005245393258
  7      -0.005245393258
 Sym= A1
 Ene=         0.0000000000
 Spin= Beta
 Occup=  0.9986
  1      -0.230377550146
  2       1.002361215780
  3       0.000000000000
  4       0.000000000000
  5      -0.262213591066
  6      -0.011675911622
  7      -0.011675911622
 Sym= A1
 Ene=         0.0000000000
 Spin= Beta
 Occup=  0.9849
  1      -0.022863183557
  2      -0.058382537160
  3       0.000000000000
  4       0.000000000000
  5       0.719579068952
  6       0.341836235853
  7       0.341836235853
 Sym= A1
 Ene=         0.0000000000
 Spin= Beta
 Occup=  0.0165
  1       0.124478936986
  2      -0.804684618563
  3       0.000000000000
  4       0.000000000000
  5      -0.750646487238
  6       0.763570459255
  7       0.763570459255
 Sym= B1
 Ene=         0.0000000000
 Spin= Beta
 Occup=  0.9988
  1       0.000000000000
  2       0.000000000000
  3       1.000000000000
  4       0.000000000000
  5       0.000000000000
  6       0.000000000000
  7       0.000000000000
 Sym= B2
 Ene=         0.0000000000
 Spin= Beta
 Occup=  0.9842
  1       0.000000000000
  2       0.000000000000
  3       0.000000000000
  4      -0.603393463905
  5       0.000000000000
  6       0.449318264424
  7      -0.449318264424
 Sym= B2
 Ene=         0.0000000000
 Spin= Beta
 Occup=  0.0170
  1       0.000000000000
  2       0.000000000000
  3       0.000000000000
  4      -0.968280568637
  5       0.000000000000
  6      -0.800882172229
  7       0.800882172229
