
Host: Eugenes-MacBook-Pro-2.local

Timers On : Thu Jun  4 07:30:34 2015
Timers Off: Thu Jun  4 07:30:37 2015

Wall Time:        3.00 seconds

JK: (A|mn)  :       0.02u       0.00s       0.00w      1 call
JK: (A|Q)^-1/2:       0.03u       0.00s       0.00w      1 call
JK: (Q|mn)  :       0.00u       0.00s       0.00w      1 call
Form H      :       0.00u       0.00s       0.00w      1 call
Form S/X    :       0.00u       0.00s       0.00w      1 call
Guess       :       0.27u       0.00s       0.00w      1 call
Form G      :       0.02u       0.00s       0.00w     15 calls
JK: D       :       0.00u       0.00s       0.00w     15 calls
JK: USO2AO  :       0.00u       0.00s       0.00w      9 calls
JK: JK      :       0.02u       0.00s       0.00w     15 calls
JK: J       :       0.00u       0.00s       0.00w      9 calls
JK: J1      :       0.00u       0.00s       0.00w     18 calls
JK: J2      :       0.00u       0.00s       0.00w     18 calls
JK: K       :       0.02u       0.00s       0.00w      9 calls
JK: K1      :       0.02u       0.00s       0.00w     18 calls
JK: K2      :       0.00u       0.00s       0.00w     18 calls
JK: AO2USO  :       0.00u       0.00s       0.00w      9 calls
Form F      :       0.00u       0.00s       0.00w     15 calls
DIIS        :       0.00u       0.00s       0.00w     15 calls
Form C      :       0.00u       0.00s       0.00w     15 calls
Form D      :       0.00u       0.00s       0.00w     15 calls
DIISManager::add_entry:       0.00u       0.00s       0.00w     14 calls
DIISManager::extrapolate:       0.00u       0.00s       0.00w     13 calls
DIISManager::extrapolate: bMatrix setup:       0.00u       0.00s       0.00w     13 calls
DIISManager::extrapolate: bMatrix pseudoinverse:       0.00u       0.00s       0.00w     13 calls
DIISManager::extrapolate: form new data:       0.00u       0.00s       0.00w     13 calls

***********************************************************

Host: Eugenes-MacBook-Pro-2.local

Timers On : Thu Jun  4 07:31:13 2015
Timers Off: Thu Jun  4 07:31:16 2015

Wall Time:        3.00 seconds

JK: (A|mn)  :       0.02u       0.00s       0.00w      1 call
JK: (A|Q)^-1/2:       0.02u       0.00s       0.00w      1 call
JK: (Q|mn)  :       0.00u       0.00s       0.00w      1 call
Form H      :       0.00u       0.00s       0.00w      1 call
Form S/X    :       0.00u       0.00s       0.00w      1 call
Guess       :       0.27u       0.00s       1.00w      1 call
Form G      :       0.02u       0.00s       0.00w     15 calls
JK: D       :       0.00u       0.00s       0.00w     15 calls
JK: USO2AO  :       0.00u       0.00s       0.00w      9 calls
JK: JK      :       0.00u       0.00s       0.00w     15 calls
JK: J       :       0.00u       0.00s       0.00w      9 calls
JK: J1      :       0.00u       0.00s       0.00w     18 calls
JK: J2      :       0.00u       0.00s       0.00w     18 calls
JK: K       :       0.00u       0.00s       0.00w      9 calls
JK: K1      :       0.00u       0.00s       0.00w     18 calls
JK: K2      :       0.00u       0.00s       0.00w     18 calls
JK: AO2USO  :       0.02u       0.00s       0.00w      9 calls
Form F      :       0.00u       0.00s       0.00w     15 calls
DIIS        :       0.00u       0.00s       0.00w     15 calls
Form C      :       0.00u       0.00s       0.00w     15 calls
Form D      :       0.00u       0.00s       0.00w     15 calls
DIISManager::add_entry:       0.00u       0.00s       0.00w     14 calls
DIISManager::extrapolate:       0.00u       0.00s       0.00w     13 calls
DIISManager::extrapolate: bMatrix setup:       0.00u       0.00s       0.00w     13 calls
DIISManager::extrapolate: bMatrix pseudoinverse:       0.00u       0.00s       0.00w     13 calls
DIISManager::extrapolate: form new data:       0.00u       0.00s       0.00w     13 calls

***********************************************************

Host: Eugenes-MacBook-Pro-2.local

Timers On : Thu Jun  4 07:33:12 2015
Timers Off: Thu Jun  4 07:33:20 2015

Wall Time:        8.00 seconds

JK: (A|mn)  :       0.00u       0.00s       0.00w      1 call
JK: (A|Q)^-1/2:       0.02u       0.00s       0.00w      1 call
JK: (Q|mn)  :       0.00u       0.00s       0.00w      1 call
Form H      :       0.00u       0.00s       0.00w      1 call
Form S/X    :       0.00u       0.00s       0.00w      1 call
Guess       :       0.03u       0.00s       0.00w      1 call
Form G      :       0.00u       0.00s       0.00w     14 calls
JK: D       :       0.00u       0.00s       0.00w     14 calls
JK: USO2AO  :       0.00u       0.00s       0.00w      9 calls
JK: JK      :       0.00u       0.00s       0.00w     14 calls
JK: J       :       0.00u       0.00s       0.00w      9 calls
JK: J1      :       0.00u       0.00s       0.00w     18 calls
JK: J2      :       0.00u       0.00s       0.00w     18 calls
JK: K       :       0.00u       0.00s       0.00w      9 calls
JK: K1      :       0.00u       0.00s       0.00w     18 calls
JK: K2      :       0.00u       0.00s       0.00w     18 calls
JK: AO2USO  :       0.00u       0.00s       0.00w      9 calls
Form F      :       0.00u       0.00s       0.00w     14 calls
DIIS        :       0.00u       0.00s       0.00w     14 calls
Form C      :       0.00u       0.00s       0.00w     14 calls
Form D      :       0.00u       0.00s       0.00w     14 calls
DIISManager::add_entry:       0.00u       0.00s       0.00w     13 calls
DIISManager::extrapolate:       0.00u       0.00s       0.00w     12 calls
DIISManager::extrapolate: bMatrix setup:       0.00u       0.00s       0.00w     12 calls
DIISManager::extrapolate: bMatrix pseudoinverse:       0.00u       0.00s       0.00w     12 calls
DIISManager::extrapolate: form new data:       0.00u       0.00s       0.00w     12 calls

***********************************************************

Host: Eugenes-MacBook-Pro-2.local

Timers On : Thu Jun  4 07:33:39 2015
Timers Off: Thu Jun  4 07:33:47 2015

Wall Time:        8.00 seconds

JK: (A|mn)  :       0.00u       0.00s       0.00w      1 call
JK: (A|Q)^-1/2:       0.03u       0.00s       0.00w      1 call
JK: (Q|mn)  :       0.00u       0.00s       0.00w      1 call
Form H      :       0.00u       0.00s       0.00w      1 call
Form S/X    :       0.00u       0.00s       0.00w      1 call
Guess       :       0.02u       0.00s       0.00w      1 call
Form G      :       0.00u       0.00s       0.00w     14 calls
JK: D       :       0.00u       0.00s       0.00w     14 calls
JK: USO2AO  :       0.00u       0.00s       0.00w      9 calls
JK: JK      :       0.00u       0.00s       0.00w     14 calls
JK: J       :       0.00u       0.00s       0.00w      9 calls
JK: J1      :       0.00u       0.00s       0.00w     18 calls
JK: J2      :       0.00u       0.00s       0.00w     18 calls
JK: K       :       0.00u       0.00s       0.00w      9 calls
JK: K1      :       0.00u       0.00s       0.00w     18 calls
JK: K2      :       0.00u       0.00s       0.00w     18 calls
JK: AO2USO  :       0.00u       0.00s       0.00w      9 calls
Form F      :       0.00u       0.00s       0.00w     14 calls
DIIS        :       0.00u       0.00s       0.00w     14 calls
Form C      :       0.00u       0.00s       0.00w     14 calls
Form D      :       0.00u       0.00s       0.00w     14 calls
DIISManager::add_entry:       0.00u       0.00s       0.00w     13 calls
DIISManager::extrapolate:       0.00u       0.00s       0.00w     12 calls
DIISManager::extrapolate: bMatrix setup:       0.00u       0.00s       0.00w     12 calls
DIISManager::extrapolate: bMatrix pseudoinverse:       0.00u       0.00s       0.00w     12 calls
DIISManager::extrapolate: form new data:       0.00u       0.00s       0.00w     12 calls

***********************************************************

Host: Eugenes-MacBook-Pro-2.local

Timers On : Thu Jun  4 08:14:09 2015
Timers Off: Thu Jun  4 08:14:10 2015

Wall Time:        1.00 seconds

JK: (A|mn)  :       0.02u       0.00s       0.00w      1 call
JK: (A|Q)^-1/2:       0.03u       0.00s       0.00w      1 call
JK: (Q|mn)  :       0.00u       0.00s       0.00w      1 call
Form H      :       0.00u       0.00s       0.00w      1 call
Form S/X    :       0.00u       0.00s       0.00w      1 call
Guess       :       0.25u       0.00s       0.00w      1 call
Form G      :       0.02u       0.00s       0.00w     13 calls
JK: D       :       0.00u       0.00s       0.00w     13 calls
JK: USO2AO  :       0.00u       0.00s       0.00w      9 calls
JK: JK      :       0.02u       0.00s       0.00w     13 calls
JK: J       :       0.00u       0.00s       0.00w      9 calls
JK: J1      :       0.00u       0.00s       0.00w     18 calls
JK: J2      :       0.00u       0.00s       0.00w     18 calls
JK: K       :       0.02u       0.00s       0.00w      9 calls
JK: K1      :       0.00u       0.00s       0.00w     18 calls
JK: K2      :       0.02u       0.00s       0.00w     18 calls
JK: AO2USO  :       0.00u       0.00s       0.00w      9 calls
Form F      :       0.00u       0.00s       0.00w     13 calls
DIIS        :       0.00u       0.00s       0.00w     13 calls
Form C      :       0.00u       0.00s       0.00w     13 calls
Form D      :       0.00u       0.00s       0.00w     13 calls
DIISManager::add_entry:       0.00u       0.00s       0.00w     12 calls
DIISManager::extrapolate:       0.00u       0.00s       0.00w     11 calls
DIISManager::extrapolate: bMatrix setup:       0.00u       0.00s       0.00w     11 calls
DIISManager::extrapolate: bMatrix pseudoinverse:       0.00u       0.00s       0.00w     11 calls
DIISManager::extrapolate: form new data:       0.00u       0.00s       0.00w     11 calls

***********************************************************

Host: Eugenes-MacBook-Pro-2.local

Timers On : Thu Jun  4 08:14:26 2015
Timers Off: Thu Jun  4 08:14:28 2015

Wall Time:        2.00 seconds

JK: (A|mn)  :       0.02u       0.02s       0.00w      1 call
JK: (A|Q)^-1/2:       0.03u       0.00s       0.00w      1 call
JK: (Q|mn)  :       0.00u       0.00s       0.00w      1 call
Form H      :       0.00u       0.00s       0.00w      1 call
Form S/X    :       0.00u       0.00s       0.00w      1 call
Guess       :       0.27u       0.00s       0.00w      1 call
Form G      :       0.02u       0.02s       0.00w     13 calls
JK: D       :       0.00u       0.00s       0.00w     13 calls
JK: USO2AO  :       0.00u       0.00s       0.00w      9 calls
JK: JK      :       0.02u       0.02s       0.00w     13 calls
JK: J       :       0.00u       0.00s       0.00w      9 calls
JK: J1      :       0.00u       0.00s       0.00w     18 calls
JK: J2      :       0.00u       0.00s       0.00w     18 calls
JK: K       :       0.02u       0.00s       0.00w      9 calls
JK: K1      :       0.02u       0.00s       0.00w     18 calls
JK: K2      :       0.00u       0.00s       0.00w     18 calls
JK: AO2USO  :       0.00u       0.00s       0.00w      9 calls
Form F      :       0.00u       0.00s       0.00w     13 calls
DIIS        :       0.00u       0.00s       0.00w     13 calls
Form C      :       0.00u       0.00s       0.00w     13 calls
Form D      :       0.00u       0.00s       0.00w     13 calls
DIISManager::add_entry:       0.00u       0.00s       0.00w     12 calls
DIISManager::extrapolate:       0.00u       0.00s       0.00w     11 calls
DIISManager::extrapolate: bMatrix setup:       0.00u       0.00s       0.00w     11 calls
DIISManager::extrapolate: bMatrix pseudoinverse:       0.00u       0.00s       0.00w     11 calls
DIISManager::extrapolate: form new data:       0.00u       0.00s       0.00w     11 calls

***********************************************************

Host: Eugenes-MacBook-Pro-2.local

Timers On : Thu Jun  4 08:14:52 2015
Timers Off: Thu Jun  4 08:14:53 2015

Wall Time:        1.00 seconds

JK: (A|mn)  :       0.02u       0.00s       0.00w      1 call
JK: (A|Q)^-1/2:       0.03u       0.00s       0.00w      1 call
JK: (Q|mn)  :       0.00u       0.00s       0.00w      1 call
Form H      :       0.00u       0.00s       0.00w      1 call
Form S/X    :       0.00u       0.00s       0.00w      1 call
Guess       :       0.25u       0.00s       0.00w      1 call
Form G      :       0.02u       0.00s       0.00w     15 calls
JK: D       :       0.00u       0.00s       0.00w     15 calls
JK: USO2AO  :       0.00u       0.00s       0.00w     11 calls
JK: JK      :       0.02u       0.00s       0.00w     15 calls
JK: J       :       0.00u       0.00s       0.00w     11 calls
JK: J1      :       0.00u       0.00s       0.00w     22 calls
JK: J2      :       0.00u       0.00s       0.00w     22 calls
JK: K       :       0.02u       0.00s       0.00w     11 calls
JK: K1      :       0.02u       0.00s       0.00w     22 calls
JK: K2      :       0.00u       0.00s       0.00w     22 calls
JK: AO2USO  :       0.00u       0.00s       0.00w     11 calls
Form F      :       0.00u       0.00s       0.00w     15 calls
DIIS        :       0.02u       0.00s       0.00w     15 calls
Form C      :       0.00u       0.00s       0.00w     15 calls
Form D      :       0.00u       0.00s       0.00w     15 calls
DIISManager::add_entry:       0.00u       0.00s       0.00w     14 calls
DIISManager::extrapolate:       0.02u       0.00s       0.00w     13 calls
DIISManager::extrapolate: bMatrix setup:       0.00u       0.00s       0.00w     13 calls
DIISManager::extrapolate: bMatrix pseudoinverse:       0.02u       0.00s       0.00w     13 calls
DIISManager::extrapolate: form new data:       0.00u       0.00s       0.00w     13 calls

***********************************************************

Host: Eugenes-MacBook-Pro-2.local

Timers On : Thu Jun  4 08:15:12 2015
Timers Off: Thu Jun  4 08:15:14 2015

Wall Time:        2.00 seconds

JK: (A|mn)  :       0.02u       0.00s       0.00w      1 call
JK: (A|Q)^-1/2:       0.03u       0.00s       0.00w      1 call
JK: (Q|mn)  :       0.00u       0.00s       0.00w      1 call
Form H      :       0.00u       0.02s       0.00w      1 call
Form S/X    :       0.00u       0.00s       0.00w      1 call
Guess       :       0.25u       0.00s       1.00w      1 call
Form G      :       0.03u       0.02s       0.00w     15 calls
JK: D       :       0.00u       0.00s       0.00w     15 calls
JK: USO2AO  :       0.00u       0.00s       0.00w     11 calls
JK: JK      :       0.02u       0.02s       0.00w     15 calls
JK: J       :       0.00u       0.00s       0.00w     11 calls
JK: J1      :       0.00u       0.00s       0.00w     22 calls
JK: J2      :       0.00u       0.00s       0.00w     22 calls
JK: K       :       0.02u       0.00s       0.00w     11 calls
JK: K1      :       0.02u       0.00s       0.00w     22 calls
JK: K2      :       0.00u       0.00s       0.00w     22 calls
JK: AO2USO  :       0.02u       0.00s       0.00w     11 calls
Form F      :       0.00u       0.00s       0.00w     15 calls
DIIS        :       0.00u       0.00s       0.00w     15 calls
Form C      :       0.00u       0.00s       0.00w     15 calls
Form D      :       0.00u       0.00s       0.00w     15 calls
DIISManager::add_entry:       0.00u       0.00s       0.00w     14 calls
DIISManager::extrapolate:       0.00u       0.00s       0.00w     13 calls
DIISManager::extrapolate: bMatrix setup:       0.00u       0.00s       0.00w     13 calls
DIISManager::extrapolate: bMatrix pseudoinverse:       0.00u       0.00s       0.00w     13 calls
DIISManager::extrapolate: form new data:       0.00u       0.00s       0.00w     13 calls

***********************************************************

Host: Eugenes-MacBook-Pro-2.local

Timers On : Thu Jun  4 08:16:27 2015
Timers Off: Thu Jun  4 08:16:28 2015

Wall Time:        1.00 seconds

JK: (A|mn)  :       0.00u       0.00s       0.00w      1 call
JK: (A|Q)^-1/2:       0.03u       0.00s       0.00w      1 call
JK: (Q|mn)  :       0.00u       0.00s       0.00w      1 call
Form H      :       0.00u       0.00s       0.00w      1 call
Form S/X    :       0.00u       0.00s       0.00w      1 call
Guess       :       0.02u       0.00s       0.00w      1 call
Form G      :       0.00u       0.00s       0.00w     14 calls
JK: D       :       0.00u       0.00s       0.00w     14 calls
JK: USO2AO  :       0.00u       0.00s       0.00w      9 calls
JK: JK      :       0.00u       0.00s       0.00w     14 calls
JK: J       :       0.00u       0.00s       0.00w      9 calls
JK: J1      :       0.00u       0.00s       0.00w     18 calls
JK: J2      :       0.00u       0.00s       0.00w     18 calls
JK: K       :       0.00u       0.00s       0.00w      9 calls
JK: K1      :       0.00u       0.00s       0.00w     18 calls
JK: K2      :       0.00u       0.00s       0.00w     18 calls
JK: AO2USO  :       0.00u       0.00s       0.00w      9 calls
Form F      :       0.00u       0.00s       0.00w     14 calls
DIIS        :       0.00u       0.00s       0.00w     14 calls
Form C      :       0.00u       0.00s       0.00w     14 calls
Form D      :       0.00u       0.00s       0.00w     14 calls
DIISManager::add_entry:       0.00u       0.00s       0.00w     13 calls
DIISManager::extrapolate:       0.00u       0.00s       0.00w     12 calls
DIISManager::extrapolate: bMatrix setup:       0.00u       0.00s       0.00w     12 calls
DIISManager::extrapolate: bMatrix pseudoinverse:       0.00u       0.00s       0.00w     12 calls
DIISManager::extrapolate: form new data:       0.00u       0.00s       0.00w     12 calls

***********************************************************

Host: Eugenes-MacBook-Pro-2.local

Timers On : Thu Jun  4 08:16:49 2015
Timers Off: Thu Jun  4 08:16:49 2015

Wall Time:        0.00 seconds

JK: (A|mn)  :       0.00u       0.00s       0.00w      1 call
JK: (A|Q)^-1/2:       0.03u       0.00s       0.00w      1 call
JK: (Q|mn)  :       0.00u       0.00s       0.00w      1 call
Form H      :       0.00u       0.02s       0.00w      1 call
Form S/X    :       0.00u       0.00s       0.00w      1 call
Guess       :       0.02u       0.00s       0.00w      1 call
Form G      :       0.00u       0.00s       0.00w     14 calls
JK: D       :       0.00u       0.00s       0.00w     14 calls
JK: USO2AO  :       0.00u       0.00s       0.00w      9 calls
JK: JK      :       0.00u       0.00s       0.00w     14 calls
JK: J       :       0.00u       0.00s       0.00w      9 calls
JK: J1      :       0.00u       0.00s       0.00w     18 calls
JK: J2      :       0.00u       0.00s       0.00w     18 calls
JK: K       :       0.00u       0.00s       0.00w      9 calls
JK: K1      :       0.00u       0.00s       0.00w     18 calls
JK: K2      :       0.00u       0.00s       0.00w     18 calls
JK: AO2USO  :       0.00u       0.00s       0.00w      9 calls
Form F      :       0.00u       0.00s       0.00w     14 calls
DIIS        :       0.00u       0.00s       0.00w     14 calls
Form C      :       0.00u       0.00s       0.00w     14 calls
Form D      :       0.00u       0.00s       0.00w     14 calls
DIISManager::add_entry:       0.00u       0.00s       0.00w     13 calls
DIISManager::extrapolate:       0.00u       0.00s       0.00w     12 calls
DIISManager::extrapolate: bMatrix setup:       0.00u       0.00s       0.00w     12 calls
DIISManager::extrapolate: bMatrix pseudoinverse:       0.00u       0.00s       0.00w     12 calls
DIISManager::extrapolate: form new data:       0.00u       0.00s       0.00w     12 calls

***********************************************************

Host: Eugenes-MacBook-Pro-2.local

Timers On : Thu Jun  4 08:17:13 2015
Timers Off: Thu Jun  4 08:17:17 2015

Wall Time:        4.00 seconds

JK: (A|mn)  :       0.00u       0.00s       0.00w      1 call
JK: (A|Q)^-1/2:       0.02u       0.02s       0.00w      1 call
JK: (Q|mn)  :       0.00u       0.00s       0.00w      1 call
Form H      :       0.00u       0.00s       0.00w      1 call
Form S/X    :       0.00u       0.00s       0.00w      1 call
Guess       :       0.03u       0.00s       0.00w      1 call
Form G      :       0.00u       0.00s       0.00w     14 calls
JK: D       :       0.00u       0.00s       0.00w     14 calls
JK: USO2AO  :       0.00u       0.00s       0.00w      9 calls
JK: JK      :       0.00u       0.00s       0.00w     14 calls
JK: J       :       0.00u       0.00s       0.00w      9 calls
JK: J1      :       0.00u       0.00s       0.00w     18 calls
JK: J2      :       0.00u       0.00s       0.00w     18 calls
JK: K       :       0.00u       0.00s       0.00w      9 calls
JK: K1      :       0.00u       0.00s       0.00w     18 calls
JK: K2      :       0.00u       0.00s       0.00w     18 calls
JK: AO2USO  :       0.00u       0.00s       0.00w      9 calls
Form F      :       0.00u       0.00s       0.00w     14 calls
DIIS        :       0.00u       0.00s       0.00w     14 calls
Form C      :       0.02u       0.00s       0.00w     14 calls
Form D      :       0.00u       0.00s       0.00w     14 calls
DIISManager::add_entry:       0.00u       0.00s       0.00w     13 calls
DIISManager::extrapolate:       0.00u       0.00s       0.00w     12 calls
DIISManager::extrapolate: bMatrix setup:       0.00u       0.00s       0.00w     12 calls
DIISManager::extrapolate: bMatrix pseudoinverse:       0.00u       0.00s       0.00w     12 calls
DIISManager::extrapolate: form new data:       0.00u       0.00s       0.00w     12 calls

***********************************************************

Host: Eugenes-MacBook-Pro-2.local

Timers On : Thu Jun  4 08:17:34 2015
Timers Off: Thu Jun  4 08:17:37 2015

Wall Time:        3.00 seconds

JK: (A|mn)  :       0.00u       0.00s       0.00w      1 call
JK: (A|Q)^-1/2:       0.02u       0.00s       0.00w      1 call
JK: (Q|mn)  :       0.00u       0.00s       0.00w      1 call
Form H      :       0.00u       0.00s       0.00w      1 call
Form S/X    :       0.00u       0.00s       0.00w      1 call
Guess       :       0.02u       0.00s       0.00w      1 call
Form G      :       0.00u       0.00s       0.00w     14 calls
JK: D       :       0.00u       0.00s       0.00w     14 calls
JK: USO2AO  :       0.00u       0.00s       0.00w      9 calls
JK: JK      :       0.00u       0.00s       0.00w     14 calls
JK: J       :       0.00u       0.00s       0.00w      9 calls
JK: J1      :       0.00u       0.00s       0.00w     18 calls
JK: J2      :       0.00u       0.00s       0.00w     18 calls
JK: K       :       0.00u       0.00s       0.00w      9 calls
JK: K1      :       0.00u       0.00s       0.00w     18 calls
JK: K2      :       0.00u       0.00s       0.00w     18 calls
JK: AO2USO  :       0.00u       0.00s       0.00w      9 calls
Form F      :       0.00u       0.00s       0.00w     14 calls
DIIS        :       0.00u       0.00s       0.00w     14 calls
Form C      :       0.00u       0.00s       0.00w     14 calls
Form D      :       0.00u       0.00s       0.00w     14 calls
DIISManager::add_entry:       0.00u       0.00s       0.00w     13 calls
DIISManager::extrapolate:       0.00u       0.00s       0.00w     12 calls
DIISManager::extrapolate: bMatrix setup:       0.00u       0.00s       0.00w     12 calls
DIISManager::extrapolate: bMatrix pseudoinverse:       0.00u       0.00s       0.00w     12 calls
DIISManager::extrapolate: form new data:       0.00u       0.00s       0.00w     12 calls

***********************************************************

Host: Eugenes-MacBook-Pro-2.local

Timers On : Thu Jun  4 08:19:04 2015
Timers Off: Thu Jun  4 08:19:37 2015

Wall Time:       33.00 seconds

JK: (A|mn)  :       0.00u       0.00s       0.00w      1 call
JK: (A|Q)^-1/2:       0.03u       0.00s       0.00w      1 call
JK: (Q|mn)  :       0.00u       0.00s       0.00w      1 call
Form H      :       0.00u       0.00s       0.00w      1 call
Form S/X    :       0.00u       0.00s       0.00w      1 call
Guess       :       0.02u       0.00s       0.00w      1 call
Form G      :       0.00u       0.00s       0.00w     17 calls
JK: D       :       0.00u       0.00s       0.00w     17 calls
JK: USO2AO  :       0.00u       0.00s       0.00w     16 calls
JK: JK      :       0.00u       0.00s       0.00w     17 calls
JK: J       :       0.00u       0.00s       0.00w     16 calls
JK: J1      :       0.00u       0.00s       0.00w     32 calls
JK: J2      :       0.00u       0.00s       0.00w     32 calls
JK: K       :       0.00u       0.00s       0.00w     16 calls
JK: K1      :       0.00u       0.00s       0.00w     32 calls
JK: K2      :       0.00u       0.00s       0.00w     32 calls
JK: AO2USO  :       0.00u       0.00s       0.00w     16 calls
Form F      :       0.00u       0.00s       0.00w     17 calls
DIIS        :       0.00u       0.02s       0.00w     17 calls
Form C      :       0.02u       0.00s       0.00w     17 calls
Form D      :       0.00u       0.00s       0.00w     17 calls
DIISManager::add_entry:       0.00u       0.00s       0.00w     16 calls
DIISManager::extrapolate:       0.00u       0.02s       0.00w     15 calls
DIISManager::extrapolate: bMatrix setup:       0.00u       0.00s       0.00w     15 calls
DIISManager::extrapolate: bMatrix pseudoinverse:       0.00u       0.00s       0.00w     15 calls
DIISManager::extrapolate: form new data:       0.00u       0.00s       0.00w     15 calls

***********************************************************

Host: Eugenes-MacBook-Pro-2.local

Timers On : Thu Jun  4 08:20:02 2015
Timers Off: Thu Jun  4 08:20:35 2015

Wall Time:       33.00 seconds

JK: (A|mn)  :       0.00u       0.00s       0.00w      1 call
JK: (A|Q)^-1/2:       0.02u       0.00s       0.00w      1 call
JK: (Q|mn)  :       0.00u       0.00s       0.00w      1 call
Form H      :       0.00u       0.00s       0.00w      1 call
Form S/X    :       0.00u       0.00s       0.00w      1 call
Guess       :       0.03u       0.00s       0.00w      1 call
Form G      :       0.00u       0.00s       0.00w     17 calls
JK: D       :       0.00u       0.00s       0.00w     17 calls
JK: USO2AO  :       0.00u       0.00s       0.00w     16 calls
JK: JK      :       0.00u       0.00s       0.00w     17 calls
JK: J       :       0.00u       0.00s       0.00w     16 calls
JK: J1      :       0.00u       0.00s       0.00w     32 calls
JK: J2      :       0.00u       0.00s       0.00w     32 calls
JK: K       :       0.00u       0.00s       0.00w     16 calls
JK: K1      :       0.00u       0.00s       0.00w     32 calls
JK: K2      :       0.00u       0.00s       0.00w     32 calls
JK: AO2USO  :       0.00u       0.00s       0.00w     16 calls
Form F      :       0.00u       0.00s       0.00w     17 calls
DIIS        :       0.00u       0.02s       0.00w     17 calls
Form C      :       0.00u       0.00s       0.00w     17 calls
Form D      :       0.00u       0.00s       0.00w     17 calls
DIISManager::add_entry:       0.00u       0.00s       0.00w     16 calls
DIISManager::extrapolate:       0.00u       0.02s       0.00w     15 calls
DIISManager::extrapolate: bMatrix setup:       0.00u       0.00s       0.00w     15 calls
DIISManager::extrapolate: bMatrix pseudoinverse:       0.00u       0.00s       0.00w     15 calls
DIISManager::extrapolate: form new data:       0.00u       0.02s       0.00w     15 calls

***********************************************************

Host: Eugenes-MacBook-Pro-2.local

Timers On : Thu Jun  4 08:26:01 2015
Timers Off: Thu Jun  4 08:26:20 2015

Wall Time:       19.00 seconds

JK: (A|mn)  :       0.00u       0.00s       0.00w      1 call
JK: (A|Q)^-1/2:       0.03u       0.00s       0.00w      1 call
JK: (Q|mn)  :       0.00u       0.00s       0.00w      1 call
Form H      :       0.00u       0.00s       0.00w      1 call
Form S/X    :       0.00u       0.00s       0.00w      1 call
Guess       :       0.02u       0.00s       0.00w      1 call
Form G      :       0.00u       0.00s       0.00w     17 calls
JK: D       :       0.00u       0.00s       0.00w     17 calls
JK: USO2AO  :       0.00u       0.00s       0.00w     16 calls
JK: JK      :       0.00u       0.00s       0.00w     17 calls
JK: J       :       0.00u       0.00s       0.00w     16 calls
JK: J1      :       0.00u       0.00s       0.00w     32 calls
JK: J2      :       0.00u       0.00s       0.00w     32 calls
JK: K       :       0.00u       0.00s       0.00w     16 calls
JK: K1      :       0.00u       0.00s       0.00w     32 calls
JK: K2      :       0.00u       0.00s       0.00w     32 calls
JK: AO2USO  :       0.00u       0.00s       0.00w     16 calls
Form F      :       0.00u       0.00s       0.00w     17 calls
DIIS        :       0.00u       0.00s       0.00w     17 calls
Form C      :       0.00u       0.00s       0.00w     17 calls
Form D      :       0.00u       0.00s       0.00w     17 calls
DIISManager::add_entry:       0.00u       0.00s       0.00w     16 calls
DIISManager::extrapolate:       0.00u       0.00s       0.00w     15 calls
DIISManager::extrapolate: bMatrix setup:       0.00u       0.00s       0.00w     15 calls
DIISManager::extrapolate: bMatrix pseudoinverse:       0.00u       0.00s       0.00w     15 calls
DIISManager::extrapolate: form new data:       0.00u       0.00s       0.00w     15 calls

***********************************************************

Host: Eugenes-MacBook-Pro-2.local

Timers On : Thu Jun  4 08:26:50 2015
Timers Off: Thu Jun  4 08:26:53 2015

Wall Time:        3.00 seconds

JK: (A|mn)  :       0.00u       0.00s       0.00w      1 call
JK: (A|Q)^-1/2:       0.03u       0.00s       0.00w      1 call
JK: (Q|mn)  :       0.00u       0.00s       0.00w      1 call
Form H      :       0.00u       0.00s       0.00w      1 call
Form S/X    :       0.00u       0.00s       0.00w      1 call
Guess       :       0.02u       0.00s       0.00w      1 call
Form G      :       0.00u       0.00s       0.00w     17 calls
JK: D       :       0.00u       0.00s       0.00w     17 calls
JK: USO2AO  :       0.00u       0.00s       0.00w     16 calls
JK: JK      :       0.00u       0.00s       0.00w     17 calls
JK: J       :       0.00u       0.00s       0.00w     16 calls
JK: J1      :       0.00u       0.00s       0.00w     32 calls
JK: J2      :       0.00u       0.00s       0.00w     32 calls
JK: K       :       0.00u       0.00s       0.00w     16 calls
JK: K1      :       0.00u       0.00s       0.00w     32 calls
JK: K2      :       0.00u       0.00s       0.00w     32 calls
JK: AO2USO  :       0.00u       0.00s       0.00w     16 calls
Form F      :       0.00u       0.00s       0.00w     17 calls
DIIS        :       0.00u       0.02s       0.00w     17 calls
Form C      :       0.00u       0.00s       0.00w     17 calls
Form D      :       0.00u       0.00s       0.00w     17 calls
DIISManager::add_entry:       0.00u       0.00s       0.00w     16 calls
DIISManager::extrapolate:       0.00u       0.02s       0.00w     15 calls
DIISManager::extrapolate: bMatrix setup:       0.00u       0.02s       0.00w     15 calls
DIISManager::extrapolate: bMatrix pseudoinverse:       0.00u       0.00s       0.00w     15 calls
DIISManager::extrapolate: form new data:       0.00u       0.00s       0.00w     15 calls

***********************************************************

Host: Eugenes-MacBook-Pro-2.local

Timers On : Thu Jun  4 08:27:44 2015
Timers Off: Thu Jun  4 08:27:50 2015

Wall Time:        6.00 seconds

JK: (A|mn)  :       0.00u       0.00s       0.00w      1 call
JK: (A|Q)^-1/2:       0.02u       0.00s       0.00w      1 call
JK: (Q|mn)  :       0.00u       0.00s       0.00w      1 call
Form H      :       0.00u       0.00s       0.00w      1 call
Form S/X    :       0.00u       0.00s       0.00w      1 call
Guess       :       0.03u       0.00s       0.00w      1 call
Form G      :       0.00u       0.00s       0.00w      5 calls
JK: D       :       0.00u       0.00s       0.00w      5 calls
JK: USO2AO  :       0.00u       0.00s       0.00w      4 calls
JK: JK      :       0.00u       0.00s       0.00w      5 calls
JK: J       :       0.00u       0.00s       0.00w      4 calls
JK: J1      :       0.00u       0.00s       0.00w      8 calls
JK: J2      :       0.00u       0.00s       0.00w      8 calls
JK: K       :       0.00u       0.00s       0.00w      4 calls
JK: K1      :       0.00u       0.00s       0.00w      8 calls
JK: K2      :       0.00u       0.00s       0.00w      8 calls
JK: AO2USO  :       0.00u       0.00s       0.00w      4 calls
Form F      :       0.00u       0.00s       0.00w      5 calls
DIIS        :       0.00u       0.02s       0.00w      5 calls
Form C      :       0.00u       0.00s       0.00w      5 calls
Form D      :       0.00u       0.00s       0.00w      5 calls
DIISManager::add_entry:       0.00u       0.02s       0.00w      4 calls
DIISManager::extrapolate:       0.00u       0.00s       0.00w      3 calls
DIISManager::extrapolate: bMatrix setup:       0.00u       0.00s       0.00w      3 calls
DIISManager::extrapolate: bMatrix pseudoinverse:       0.00u       0.00s       0.00w      3 calls
DIISManager::extrapolate: form new data:       0.00u       0.00s       0.00w      3 calls

***********************************************************

Host: Eugenes-MacBook-Pro-2.local

Timers On : Thu Jun  4 08:28:20 2015
Timers Off: Thu Jun  4 08:28:24 2015

Wall Time:        4.00 seconds

JK: (A|mn)  :       0.00u       0.00s       0.00w      1 call
JK: (A|Q)^-1/2:       0.03u       0.00s       0.00w      1 call
JK: (Q|mn)  :       0.00u       0.00s       0.00w      1 call
Form H      :       0.00u       0.00s       0.00w      1 call
Form S/X    :       0.00u       0.00s       0.00w      1 call
Guess       :       0.02u       0.00s       0.00w      1 call
Form G      :       0.00u       0.00s       0.00w      5 calls
JK: D       :       0.00u       0.00s       0.00w      5 calls
JK: USO2AO  :       0.00u       0.00s       0.00w      4 calls
JK: JK      :       0.00u       0.00s       0.00w      5 calls
JK: J       :       0.00u       0.00s       0.00w      4 calls
JK: J1      :       0.00u       0.00s       0.00w      8 calls
JK: J2      :       0.00u       0.00s       0.00w      8 calls
JK: K       :       0.00u       0.00s       0.00w      4 calls
JK: K1      :       0.00u       0.00s       0.00w      8 calls
JK: K2      :       0.00u       0.00s       0.00w      8 calls
JK: AO2USO  :       0.00u       0.00s       0.00w      4 calls
Form F      :       0.00u       0.00s       0.00w      5 calls
DIIS        :       0.00u       0.00s       0.00w      5 calls
Form C      :       0.00u       0.00s       0.00w      5 calls
Form D      :       0.00u       0.00s       0.00w      5 calls
DIISManager::add_entry:       0.00u       0.00s       0.00w      4 calls
DIISManager::extrapolate:       0.00u       0.00s       0.00w      3 calls
DIISManager::extrapolate: bMatrix setup:       0.00u       0.00s       0.00w      3 calls
DIISManager::extrapolate: bMatrix pseudoinverse:       0.00u       0.00s       0.00w      3 calls
DIISManager::extrapolate: form new data:       0.00u       0.00s       0.00w      3 calls

***********************************************************

Host: Eugenes-MacBook-Pro-2.local

Timers On : Thu Jun  4 08:28:46 2015
Timers Off: Thu Jun  4 08:28:48 2015

Wall Time:        2.00 seconds

JK: (A|mn)  :       0.00u       0.00s       0.00w      1 call
JK: (A|Q)^-1/2:       0.02u       0.02s       0.00w      1 call
JK: (Q|mn)  :       0.00u       0.00s       0.00w      1 call
Form H      :       0.00u       0.00s       0.00w      1 call
Form S/X    :       0.00u       0.00s       0.00w      1 call
Guess       :       0.03u       0.00s       0.00w      1 call
Form G      :       0.00u       0.00s       0.00w      5 calls
JK: D       :       0.00u       0.00s       0.00w      5 calls
JK: USO2AO  :       0.00u       0.00s       0.00w      4 calls
JK: JK      :       0.00u       0.00s       0.00w      5 calls
JK: J       :       0.00u       0.00s       0.00w      4 calls
JK: J1      :       0.00u       0.00s       0.00w      8 calls
JK: J2      :       0.00u       0.00s       0.00w      8 calls
JK: K       :       0.00u       0.00s       0.00w      4 calls
JK: K1      :       0.00u       0.00s       0.00w      8 calls
JK: K2      :       0.00u       0.00s       0.00w      8 calls
JK: AO2USO  :       0.00u       0.00s       0.00w      4 calls
Form F      :       0.00u       0.00s       0.00w      5 calls
DIIS        :       0.00u       0.00s       0.00w      5 calls
Form C      :       0.00u       0.00s       0.00w      5 calls
Form D      :       0.00u       0.00s       0.00w      5 calls
DIISManager::add_entry:       0.00u       0.00s       0.00w      4 calls
DIISManager::extrapolate:       0.00u       0.00s       0.00w      3 calls
DIISManager::extrapolate: bMatrix setup:       0.00u       0.00s       0.00w      3 calls
DIISManager::extrapolate: bMatrix pseudoinverse:       0.00u       0.00s       0.00w      3 calls
DIISManager::extrapolate: form new data:       0.00u       0.00s       0.00w      3 calls

***********************************************************

Host: Eugenes-MacBook-Pro-2.local

Timers On : Thu Jun  4 08:29:38 2015
Timers Off: Thu Jun  4 08:29:41 2015

Wall Time:        3.00 seconds

JK: (A|mn)  :       0.00u       0.00s       0.00w      1 call
JK: (A|Q)^-1/2:       0.02u       0.00s       0.00w      1 call
JK: (Q|mn)  :       0.00u       0.00s       0.00w      1 call
Form H      :       0.00u       0.00s       0.00w      1 call
Form S/X    :       0.00u       0.00s       0.00w      1 call
Guess       :       0.03u       0.00s       0.00w      1 call
Form G      :       0.00u       0.00s       0.00w      5 calls
JK: D       :       0.00u       0.00s       0.00w      5 calls
JK: USO2AO  :       0.00u       0.00s       0.00w      4 calls
JK: JK      :       0.00u       0.00s       0.00w      5 calls
JK: J       :       0.00u       0.00s       0.00w      4 calls
JK: J1      :       0.00u       0.00s       0.00w      8 calls
JK: J2      :       0.00u       0.00s       0.00w      8 calls
JK: K       :       0.00u       0.00s       0.00w      4 calls
JK: K1      :       0.00u       0.00s       0.00w      8 calls
JK: K2      :       0.00u       0.00s       0.00w      8 calls
JK: AO2USO  :       0.00u       0.00s       0.00w      4 calls
Form F      :       0.00u       0.00s       0.00w      5 calls
DIIS        :       0.00u       0.00s       0.00w      5 calls
Form C      :       0.00u       0.00s       0.00w      5 calls
Form D      :       0.00u       0.00s       0.00w      5 calls
DIISManager::add_entry:       0.00u       0.00s       0.00w      4 calls
DIISManager::extrapolate:       0.00u       0.00s       0.00w      3 calls
DIISManager::extrapolate: bMatrix setup:       0.00u       0.00s       0.00w      3 calls
DIISManager::extrapolate: bMatrix pseudoinverse:       0.00u       0.00s       0.00w      3 calls
DIISManager::extrapolate: form new data:       0.00u       0.00s       0.00w      3 calls

***********************************************************

Host: Eugenes-MacBook-Pro-2.local

Timers On : Thu Jun  4 08:30:19 2015
Timers Off: Thu Jun  4 08:30:24 2015

Wall Time:        5.00 seconds

JK: (A|mn)  :       0.00u       0.00s       0.00w      1 call
JK: (A|Q)^-1/2:       0.02u       0.00s       0.00w      1 call
JK: (Q|mn)  :       0.00u       0.00s       0.00w      1 call
Form H      :       0.00u       0.00s       0.00w      1 call
Form S/X    :       0.00u       0.00s       0.00w      1 call
Guess       :       0.03u       0.00s       0.00w      1 call
Form G      :       0.00u       0.00s       0.00w      5 calls
JK: D       :       0.00u       0.00s       0.00w      5 calls
JK: USO2AO  :       0.00u       0.00s       0.00w      4 calls
JK: JK      :       0.00u       0.00s       0.00w      5 calls
JK: J       :       0.00u       0.00s       0.00w      4 calls
JK: J1      :       0.00u       0.00s       0.00w      8 calls
JK: J2      :       0.00u       0.00s       0.00w      8 calls
JK: K       :       0.00u       0.00s       0.00w      4 calls
JK: K1      :       0.00u       0.00s       0.00w      8 calls
JK: K2      :       0.00u       0.00s       0.00w      8 calls
JK: AO2USO  :       0.00u       0.00s       0.00w      4 calls
Form F      :       0.00u       0.00s       0.00w      5 calls
DIIS        :       0.00u       0.02s       0.00w      5 calls
Form C      :       0.00u       0.00s       0.00w      5 calls
Form D      :       0.00u       0.00s       0.00w      5 calls
DIISManager::add_entry:       0.00u       0.02s       0.00w      4 calls
DIISManager::extrapolate:       0.00u       0.00s       0.00w      3 calls
DIISManager::extrapolate: bMatrix setup:       0.00u       0.00s       0.00w      3 calls
DIISManager::extrapolate: bMatrix pseudoinverse:       0.00u       0.00s       0.00w      3 calls
DIISManager::extrapolate: form new data:       0.00u       0.00s       0.00w      3 calls

***********************************************************

Host: Eugenes-MacBook-Pro-2.local

Timers On : Thu Jun  4 08:31:34 2015
Timers Off: Thu Jun  4 08:31:40 2015

Wall Time:        6.00 seconds

JK: (A|mn)  :       0.00u       0.00s       0.00w      1 call
JK: (A|Q)^-1/2:       0.02u       0.02s       0.00w      1 call
JK: (Q|mn)  :       0.00u       0.00s       0.00w      1 call
Form H      :       0.00u       0.00s       0.00w      1 call
Form S/X    :       0.00u       0.00s       0.00w      1 call
Guess       :       0.02u       0.00s       0.00w      1 call
Form G      :       0.00u       0.00s       0.00w      5 calls
JK: D       :       0.00u       0.00s       0.00w      5 calls
JK: USO2AO  :       0.00u       0.00s       0.00w      4 calls
JK: JK      :       0.00u       0.00s       0.00w      5 calls
JK: J       :       0.00u       0.00s       0.00w      4 calls
JK: J1      :       0.00u       0.00s       0.00w      8 calls
JK: J2      :       0.00u       0.00s       0.00w      8 calls
JK: K       :       0.00u       0.00s       0.00w      4 calls
JK: K1      :       0.00u       0.00s       0.00w      8 calls
JK: K2      :       0.00u       0.00s       0.00w      8 calls
JK: AO2USO  :       0.00u       0.00s       0.00w      4 calls
Form F      :       0.00u       0.00s       0.00w      5 calls
DIIS        :       0.00u       0.00s       0.00w      5 calls
Form C      :       0.00u       0.00s       0.00w      5 calls
Form D      :       0.00u       0.00s       0.00w      5 calls
DIISManager::add_entry:       0.00u       0.00s       0.00w      4 calls
DIISManager::extrapolate:       0.00u       0.00s       0.00w      3 calls
DIISManager::extrapolate: bMatrix setup:       0.00u       0.00s       0.00w      3 calls
DIISManager::extrapolate: bMatrix pseudoinverse:       0.00u       0.00s       0.00w      3 calls
DIISManager::extrapolate: form new data:       0.00u       0.00s       0.00w      3 calls

***********************************************************

Host: Eugenes-MacBook-Pro-2.local

Timers On : Thu Jun  4 08:32:10 2015
Timers Off: Thu Jun  4 08:32:14 2015

Wall Time:        4.00 seconds

JK: (A|mn)  :       0.00u       0.00s       0.00w      1 call
JK: (A|Q)^-1/2:       0.02u       0.00s       0.00w      1 call
JK: (Q|mn)  :       0.00u       0.00s       0.00w      1 call
Form H      :       0.00u       0.00s       0.00w      1 call
Form S/X    :       0.00u       0.00s       0.00w      1 call
Guess       :       0.02u       0.00s       0.00w      1 call
Form G      :       0.00u       0.00s       0.00w      5 calls
JK: D       :       0.00u       0.00s       0.00w      5 calls
JK: USO2AO  :       0.00u       0.00s       0.00w      4 calls
JK: JK      :       0.00u       0.00s       0.00w      5 calls
JK: J       :       0.00u       0.00s       0.00w      4 calls
JK: J1      :       0.00u       0.00s       0.00w      8 calls
JK: J2      :       0.00u       0.00s       0.00w      8 calls
JK: K       :       0.00u       0.00s       0.00w      4 calls
JK: K1      :       0.00u       0.00s       0.00w      8 calls
JK: K2      :       0.00u       0.00s       0.00w      8 calls
JK: AO2USO  :       0.00u       0.00s       0.00w      4 calls
Form F      :       0.00u       0.00s       0.00w      5 calls
DIIS        :       0.02u       0.00s       0.00w      5 calls
Form C      :       0.00u       0.00s       0.00w      5 calls
Form D      :       0.00u       0.00s       0.00w      5 calls
DIISManager::add_entry:       0.00u       0.00s       0.00w      4 calls
DIISManager::extrapolate:       0.00u       0.00s       0.00w      3 calls
DIISManager::extrapolate: bMatrix setup:       0.00u       0.00s       0.00w      3 calls
DIISManager::extrapolate: bMatrix pseudoinverse:       0.00u       0.00s       0.00w      3 calls
DIISManager::extrapolate: form new data:       0.00u       0.00s       0.00w      3 calls

***********************************************************

Host: Eugenes-MacBook-Pro-2.local

Timers On : Thu Jun  4 08:33:12 2015
Timers Off: Thu Jun  4 08:33:13 2015

Wall Time:        1.00 seconds

JK: (A|mn)  :       0.00u       0.00s       0.00w      1 call
JK: (A|Q)^-1/2:       0.02u       0.00s       0.00w      1 call
JK: (Q|mn)  :       0.00u       0.00s       0.00w      1 call
Form H      :       0.00u       0.00s       0.00w      1 call
Form S/X    :       0.00u       0.00s       0.00w      1 call
Guess       :       0.03u       0.00s       0.00w      1 call
Form G      :       0.00u       0.00s       0.00w     14 calls
JK: D       :       0.00u       0.00s       0.00w     14 calls
JK: USO2AO  :       0.00u       0.00s       0.00w      9 calls
JK: JK      :       0.00u       0.00s       0.00w     14 calls
JK: J       :       0.00u       0.00s       0.00w      9 calls
JK: J1      :       0.00u       0.00s       0.00w     18 calls
JK: J2      :       0.00u       0.00s       0.00w     18 calls
JK: K       :       0.00u       0.00s       0.00w      9 calls
JK: K1      :       0.00u       0.00s       0.00w     18 calls
JK: K2      :       0.00u       0.00s       0.00w     18 calls
JK: AO2USO  :       0.00u       0.00s       0.00w      9 calls
Form F      :       0.00u       0.00s       0.00w     14 calls
DIIS        :       0.00u       0.00s       0.00w     14 calls
Form C      :       0.00u       0.00s       0.00w     14 calls
Form D      :       0.00u       0.00s       0.00w     14 calls
DIISManager::add_entry:       0.00u       0.00s       0.00w     13 calls
DIISManager::extrapolate:       0.00u       0.00s       0.00w     12 calls
DIISManager::extrapolate: bMatrix setup:       0.00u       0.00s       0.00w     12 calls
DIISManager::extrapolate: bMatrix pseudoinverse:       0.00u       0.00s       0.00w     12 calls
DIISManager::extrapolate: form new data:       0.00u       0.00s       0.00w     12 calls

***********************************************************

Host: Eugenes-MacBook-Pro-2.local

Timers On : Thu Jun  4 08:35:38 2015
Timers Off: Thu Jun  4 08:35:39 2015

Wall Time:        1.00 seconds

JK: (A|mn)  :       0.02u       0.00s       0.00w      1 call
JK: (A|Q)^-1/2:       0.02u       0.00s       0.00w      1 call
JK: (Q|mn)  :       0.00u       0.00s       0.00w      1 call
Form H      :       0.00u       0.00s       0.00w      1 call
Form S/X    :       0.00u       0.00s       0.00w      1 call
Guess       :       0.02u       0.02s       0.00w      1 call
Form G      :       0.00u       0.00s       0.00w     14 calls
JK: D       :       0.00u       0.00s       0.00w     14 calls
JK: USO2AO  :       0.00u       0.00s       0.00w      9 calls
JK: JK      :       0.00u       0.00s       0.00w     14 calls
JK: J       :       0.00u       0.00s       0.00w      9 calls
JK: J1      :       0.00u       0.00s       0.00w     18 calls
JK: J2      :       0.00u       0.00s       0.00w     18 calls
JK: K       :       0.00u       0.00s       0.00w      9 calls
JK: K1      :       0.00u       0.00s       0.00w     18 calls
JK: K2      :       0.00u       0.00s       0.00w     18 calls
JK: AO2USO  :       0.00u       0.00s       0.00w      9 calls
Form F      :       0.00u       0.00s       0.00w     14 calls
DIIS        :       0.00u       0.00s       0.00w     14 calls
Form C      :       0.00u       0.00s       0.00w     14 calls
Form D      :       0.00u       0.00s       0.00w     14 calls
DIISManager::add_entry:       0.00u       0.00s       0.00w     13 calls
DIISManager::extrapolate:       0.00u       0.00s       0.00w     12 calls
DIISManager::extrapolate: bMatrix setup:       0.00u       0.00s       0.00w     12 calls
DIISManager::extrapolate: bMatrix pseudoinverse:       0.00u       0.00s       0.00w     12 calls
DIISManager::extrapolate: form new data:       0.00u       0.00s       0.00w     12 calls

***********************************************************

Host: Eugenes-MacBook-Pro-2.local

Timers On : Thu Jun  4 08:48:24 2015
Timers Off: Thu Jun  4 08:48:32 2015

Wall Time:        8.00 seconds

JK: (A|mn)  :       0.00u       0.00s       0.00w      1 call
JK: (A|Q)^-1/2:       0.02u       0.00s       0.00w      1 call
JK: (Q|mn)  :       0.00u       0.00s       0.00w      1 call
Form H      :       0.00u       0.00s       0.00w      1 call
Form S/X    :       0.00u       0.00s       0.00w      1 call
Guess       :       0.03u       0.00s       0.00w      1 call
Form G      :       0.00u       0.00s       0.00w     14 calls
JK: D       :       0.00u       0.00s       0.00w     14 calls
JK: USO2AO  :       0.00u       0.00s       0.00w      9 calls
JK: JK      :       0.00u       0.00s       0.00w     14 calls
JK: J       :       0.00u       0.00s       0.00w      9 calls
JK: J1      :       0.00u       0.00s       0.00w     18 calls
JK: J2      :       0.00u       0.00s       0.00w     18 calls
JK: K       :       0.00u       0.00s       0.00w      9 calls
JK: K1      :       0.00u       0.00s       0.00w     18 calls
JK: K2      :       0.00u       0.00s       0.00w     18 calls
JK: AO2USO  :       0.00u       0.00s       0.00w      9 calls
Form F      :       0.00u       0.00s       0.00w     14 calls
DIIS        :       0.00u       0.00s       0.00w     14 calls
Form C      :       0.00u       0.00s       0.00w     14 calls
Form D      :       0.00u       0.00s       0.00w     14 calls
DIISManager::add_entry:       0.00u       0.00s       0.00w     13 calls
DIISManager::extrapolate:       0.00u       0.00s       0.00w     12 calls
DIISManager::extrapolate: bMatrix setup:       0.00u       0.00s       0.00w     12 calls
DIISManager::extrapolate: bMatrix pseudoinverse:       0.00u       0.00s       0.00w     12 calls
DIISManager::extrapolate: form new data:       0.00u       0.00s       0.00w     12 calls

***********************************************************

Host: Eugenes-MacBook-Pro-2.local

Timers On : Thu Jun  4 08:49:10 2015
Timers Off: Thu Jun  4 08:49:18 2015

Wall Time:        8.00 seconds

JK: (A|mn)  :       0.00u       0.00s       0.00w      1 call
JK: (A|Q)^-1/2:       0.03u       0.00s       0.00w      1 call
JK: (Q|mn)  :       0.00u       0.00s       0.00w      1 call
Form H      :       0.00u       0.00s       0.00w      1 call
Form S/X    :       0.00u       0.00s       0.00w      1 call
Guess       :       0.02u       0.00s       0.00w      1 call
Form G      :       0.00u       0.00s       0.00w     14 calls
JK: D       :       0.00u       0.00s       0.00w     14 calls
JK: USO2AO  :       0.00u       0.00s       0.00w      9 calls
JK: JK      :       0.00u       0.00s       0.00w     14 calls
JK: J       :       0.00u       0.00s       0.00w      9 calls
JK: J1      :       0.00u       0.00s       0.00w     18 calls
JK: J2      :       0.00u       0.00s       0.00w     18 calls
JK: K       :       0.00u       0.00s       0.00w      9 calls
JK: K1      :       0.00u       0.00s       0.00w     18 calls
JK: K2      :       0.00u       0.00s       0.00w     18 calls
JK: AO2USO  :       0.00u       0.00s       0.00w      9 calls
Form F      :       0.00u       0.00s       0.00w     14 calls
DIIS        :       0.00u       0.00s       0.00w     14 calls
Form C      :       0.00u       0.00s       0.00w     14 calls
Form D      :       0.00u       0.00s       0.00w     14 calls
DIISManager::add_entry:       0.00u       0.00s       0.00w     13 calls
DIISManager::extrapolate:       0.00u       0.00s       0.00w     12 calls
DIISManager::extrapolate: bMatrix setup:       0.00u       0.00s       0.00w     12 calls
DIISManager::extrapolate: bMatrix pseudoinverse:       0.00u       0.00s       0.00w     12 calls
DIISManager::extrapolate: form new data:       0.00u       0.00s       0.00w     12 calls

***********************************************************

Host: Eugenes-MacBook-Pro-2.local

Timers On : Thu Jun  4 08:50:07 2015
Timers Off: Thu Jun  4 08:50:14 2015

Wall Time:        7.00 seconds

JK: (A|mn)  :       0.00u       0.00s       0.00w      1 call
JK: (A|Q)^-1/2:       0.02u       0.00s       0.00w      1 call
JK: (Q|mn)  :       0.00u       0.00s       0.00w      1 call
Form H      :       0.00u       0.02s       0.00w      1 call
Form S/X    :       0.00u       0.00s       0.00w      1 call
Guess       :       0.02u       0.00s       0.00w      1 call
Form G      :       0.02u       0.00s       0.00w     14 calls
JK: D       :       0.00u       0.00s       0.00w     14 calls
JK: USO2AO  :       0.00u       0.00s       0.00w      9 calls
JK: JK      :       0.02u       0.00s       0.00w     14 calls
JK: J       :       0.00u       0.00s       0.00w      9 calls
JK: J1      :       0.00u       0.00s       0.00w     18 calls
JK: J2      :       0.00u       0.00s       0.00w     18 calls
JK: K       :       0.02u       0.00s       0.00w      9 calls
JK: K1      :       0.00u       0.00s       0.00w     18 calls
JK: K2      :       0.02u       0.00s       0.00w     18 calls
JK: AO2USO  :       0.00u       0.00s       0.00w      9 calls
Form F      :       0.00u       0.00s       0.00w     14 calls
DIIS        :       0.00u       0.00s       0.00w     14 calls
Form C      :       0.00u       0.00s       0.00w     14 calls
Form D      :       0.00u       0.00s       0.00w     14 calls
DIISManager::add_entry:       0.00u       0.00s       0.00w     13 calls
DIISManager::extrapolate:       0.00u       0.00s       0.00w     12 calls
DIISManager::extrapolate: bMatrix setup:       0.00u       0.00s       0.00w     12 calls
DIISManager::extrapolate: bMatrix pseudoinverse:       0.00u       0.00s       0.00w     12 calls
DIISManager::extrapolate: form new data:       0.00u       0.00s       0.00w     12 calls

***********************************************************

Host: Eugenes-MacBook-Pro-2.local

Timers On : Thu Jun  4 08:51:14 2015
Timers Off: Thu Jun  4 08:51:21 2015

Wall Time:        7.00 seconds

JK: (A|mn)  :       0.00u       0.00s       0.00w      1 call
JK: (A|Q)^-1/2:       0.03u       0.00s       0.00w      1 call
JK: (Q|mn)  :       0.00u       0.00s       0.00w      1 call
Form H      :       0.00u       0.00s       0.00w      1 call
Form S/X    :       0.00u       0.00s       0.00w      1 call
Guess       :       0.02u       0.00s       0.00w      1 call
Form G      :       0.00u       0.00s       0.00w     14 calls
JK: D       :       0.00u       0.00s       0.00w     14 calls
JK: USO2AO  :       0.00u       0.00s       0.00w      9 calls
JK: JK      :       0.00u       0.00s       0.00w     14 calls
JK: J       :       0.00u       0.00s       0.00w      9 calls
JK: J1      :       0.00u       0.00s       0.00w     18 calls
JK: J2      :       0.00u       0.00s       0.00w     18 calls
JK: K       :       0.00u       0.00s       0.00w      9 calls
JK: K1      :       0.00u       0.00s       0.00w     18 calls
JK: K2      :       0.00u       0.00s       0.00w     18 calls
JK: AO2USO  :       0.00u       0.00s       0.00w      9 calls
Form F      :       0.00u       0.00s       0.00w     14 calls
DIIS        :       0.00u       0.00s       0.00w     14 calls
Form C      :       0.00u       0.00s       0.00w     14 calls
Form D      :       0.00u       0.00s       0.00w     14 calls
DIISManager::add_entry:       0.00u       0.00s       0.00w     13 calls
DIISManager::extrapolate:       0.00u       0.00s       0.00w     12 calls
DIISManager::extrapolate: bMatrix setup:       0.00u       0.00s       0.00w     12 calls
DIISManager::extrapolate: bMatrix pseudoinverse:       0.00u       0.00s       0.00w     12 calls
DIISManager::extrapolate: form new data:       0.00u       0.00s       0.00w     12 calls

***********************************************************

Host: Eugenes-MacBook-Pro-2.local

Timers On : Thu Jun  4 08:51:43 2015
Timers Off: Thu Jun  4 08:51:50 2015

Wall Time:        7.00 seconds

JK: (A|mn)  :       0.00u       0.00s       0.00w      1 call
JK: (A|Q)^-1/2:       0.03u       0.00s       0.00w      1 call
JK: (Q|mn)  :       0.00u       0.00s       0.00w      1 call
Form H      :       0.00u       0.00s       0.00w      1 call
Form S/X    :       0.00u       0.00s       0.00w      1 call
Guess       :       0.02u       0.00s       0.00w      1 call
Form G      :       0.00u       0.00s       0.00w     14 calls
JK: D       :       0.00u       0.00s       0.00w     14 calls
JK: USO2AO  :       0.00u       0.00s       0.00w      9 calls
JK: JK      :       0.00u       0.00s       0.00w     14 calls
JK: J       :       0.00u       0.00s       0.00w      9 calls
JK: J1      :       0.00u       0.00s       0.00w     18 calls
JK: J2      :       0.00u       0.00s       0.00w     18 calls
JK: K       :       0.00u       0.00s       0.00w      9 calls
JK: K1      :       0.00u       0.00s       0.00w     18 calls
JK: K2      :       0.00u       0.00s       0.00w     18 calls
JK: AO2USO  :       0.00u       0.00s       0.00w      9 calls
Form F      :       0.00u       0.00s       0.00w     14 calls
DIIS        :       0.00u       0.00s       0.00w     14 calls
Form C      :       0.00u       0.00s       0.00w     14 calls
Form D      :       0.00u       0.00s       0.00w     14 calls
DIISManager::add_entry:       0.00u       0.00s       0.00w     13 calls
DIISManager::extrapolate:       0.00u       0.00s       0.00w     12 calls
DIISManager::extrapolate: bMatrix setup:       0.00u       0.00s       0.00w     12 calls
DIISManager::extrapolate: bMatrix pseudoinverse:       0.00u       0.00s       0.00w     12 calls
DIISManager::extrapolate: form new data:       0.00u       0.00s       0.00w     12 calls

***********************************************************

Host: Eugenes-MacBook-Pro-2.local

Timers On : Thu Jun  4 08:54:55 2015
Timers Off: Thu Jun  4 08:55:03 2015

Wall Time:        8.00 seconds

JK: (A|mn)  :       0.02u       0.00s       0.00w      1 call
JK: (A|Q)^-1/2:       0.02u       0.00s       0.00w      1 call
JK: (Q|mn)  :       0.00u       0.00s       0.00w      1 call
Form H      :       0.00u       0.00s       0.00w      1 call
Form S/X    :       0.00u       0.00s       0.00w      1 call
Guess       :       0.02u       0.00s       0.00w      1 call
Form G      :       0.00u       0.00s       0.00w     14 calls
JK: D       :       0.00u       0.00s       0.00w     14 calls
JK: USO2AO  :       0.00u       0.00s       0.00w      9 calls
JK: JK      :       0.00u       0.00s       0.00w     14 calls
JK: J       :       0.00u       0.00s       0.00w      9 calls
JK: J1      :       0.00u       0.00s       0.00w     18 calls
JK: J2      :       0.00u       0.00s       0.00w     18 calls
JK: K       :       0.00u       0.00s       0.00w      9 calls
JK: K1      :       0.00u       0.00s       0.00w     18 calls
JK: K2      :       0.00u       0.00s       0.00w     18 calls
JK: AO2USO  :       0.00u       0.00s       0.00w      9 calls
Form F      :       0.00u       0.00s       0.00w     14 calls
DIIS        :       0.00u       0.00s       0.00w     14 calls
Form C      :       0.00u       0.00s       0.00w     14 calls
Form D      :       0.00u       0.00s       0.00w     14 calls
DIISManager::add_entry:       0.00u       0.00s       0.00w     13 calls
DIISManager::extrapolate:       0.00u       0.00s       0.00w     12 calls
DIISManager::extrapolate: bMatrix setup:       0.00u       0.00s       0.00w     12 calls
DIISManager::extrapolate: bMatrix pseudoinverse:       0.00u       0.00s       0.00w     12 calls
DIISManager::extrapolate: form new data:       0.00u       0.00s       0.00w     12 calls

***********************************************************

Host: wg-dhcp201d206d134.secure.wireless.fsu.

Timers On : Thu Jun  4 16:28:38 2015
Timers Off: Thu Jun  4 16:28:46 2015

Wall Time:        8.00 seconds

JK: (A|mn)  :       0.00u       0.00s       0.00w      1 call
JK: (A|Q)^-1/2:       0.02u       0.00s       0.00w      1 call
JK: (Q|mn)  :       0.00u       0.00s       0.00w      1 call
Form H      :       0.00u       0.00s       0.00w      1 call
Form S/X    :       0.00u       0.00s       0.00w      1 call
Guess       :       0.03u       0.00s       0.00w      1 call
Form G      :       0.00u       0.00s       0.00w     14 calls
JK: D       :       0.00u       0.00s       0.00w     14 calls
JK: USO2AO  :       0.00u       0.00s       0.00w      9 calls
JK: JK      :       0.00u       0.00s       0.00w     14 calls
JK: J       :       0.00u       0.00s       0.00w      9 calls
JK: J1      :       0.00u       0.00s       0.00w     18 calls
JK: J2      :       0.00u       0.00s       0.00w     18 calls
JK: K       :       0.00u       0.00s       0.00w      9 calls
JK: K1      :       0.00u       0.00s       0.00w     18 calls
JK: K2      :       0.00u       0.00s       0.00w     18 calls
JK: AO2USO  :       0.00u       0.00s       0.00w      9 calls
Form F      :       0.00u       0.00s       0.00w     14 calls
DIIS        :       0.00u       0.00s       0.00w     14 calls
Form C      :       0.00u       0.00s       0.00w     14 calls
Form D      :       0.00u       0.00s       0.00w     14 calls
DIISManager::add_entry:       0.00u       0.00s       0.00w     13 calls
DIISManager::extrapolate:       0.00u       0.00s       0.00w     12 calls
DIISManager::extrapolate: bMatrix setup:       0.00u       0.00s       0.00w     12 calls
DIISManager::extrapolate: bMatrix pseudoinverse:       0.00u       0.00s       0.00w     12 calls
DIISManager::extrapolate: form new data:       0.00u       0.00s       0.00w     12 calls

***********************************************************

Host: wg-dhcp201d206d134.secure.wireless.fsu.

Timers On : Thu Jun  4 16:34:28 2015
Timers Off: Thu Jun  4 16:34:30 2015

Wall Time:        2.00 seconds

JK: (A|mn)  :       0.00u       0.00s       0.00w      1 call
JK: (A|Q)^-1/2:       0.02u       0.00s       0.00w      1 call
JK: (Q|mn)  :       0.00u       0.00s       0.00w      1 call
Form H      :       0.00u       0.00s       0.00w      1 call
Form S/X    :       0.00u       0.00s       0.00w      1 call
Guess       :       0.03u       0.00s       0.00w      1 call
Form G      :       0.00u       0.00s       0.00w     14 calls
JK: D       :       0.00u       0.00s       0.00w     14 calls
JK: USO2AO  :       0.00u       0.00s       0.00w      9 calls
JK: JK      :       0.00u       0.00s       0.00w     14 calls
JK: J       :       0.00u       0.00s       0.00w      9 calls
JK: J1      :       0.00u       0.00s       0.00w     18 calls
JK: J2      :       0.00u       0.00s       0.00w     18 calls
JK: K       :       0.00u       0.00s       0.00w      9 calls
JK: K1      :       0.00u       0.00s       0.00w     18 calls
JK: K2      :       0.00u       0.00s       0.00w     18 calls
JK: AO2USO  :       0.00u       0.00s       0.00w      9 calls
Form F      :       0.00u       0.00s       0.00w     14 calls
DIIS        :       0.00u       0.00s       0.00w     14 calls
Form C      :       0.00u       0.00s       0.00w     14 calls
Form D      :       0.00u       0.00s       0.00w     14 calls
DIISManager::add_entry:       0.00u       0.00s       0.00w     13 calls
DIISManager::extrapolate:       0.00u       0.00s       0.00w     12 calls
DIISManager::extrapolate: bMatrix setup:       0.00u       0.00s       0.00w     12 calls
DIISManager::extrapolate: bMatrix pseudoinverse:       0.00u       0.00s       0.00w     12 calls
DIISManager::extrapolate: form new data:       0.00u       0.00s       0.00w     12 calls

***********************************************************

Host: wg-dhcp201d206d134.secure.wireless.fsu.

Timers On : Thu Jun  4 16:36:12 2015
Timers Off: Thu Jun  4 16:36:15 2015

Wall Time:        3.00 seconds

JK: (A|mn)  :       0.00u       0.00s       0.00w      1 call
JK: (A|Q)^-1/2:       0.03u       0.00s       0.00w      1 call
JK: (Q|mn)  :       0.00u       0.00s       0.00w      1 call
Form H      :       0.00u       0.00s       0.00w      1 call
Form S/X    :       0.00u       0.00s       0.00w      1 call
Guess       :       0.02u       0.00s       0.00w      1 call
Form G      :       0.00u       0.00s       0.00w     14 calls
JK: D       :       0.00u       0.00s       0.00w     14 calls
JK: USO2AO  :       0.00u       0.00s       0.00w      9 calls
JK: JK      :       0.00u       0.00s       0.00w     14 calls
JK: J       :       0.00u       0.00s       0.00w      9 calls
JK: J1      :       0.00u       0.00s       0.00w     18 calls
JK: J2      :       0.00u       0.00s       0.00w     18 calls
JK: K       :       0.00u       0.00s       0.00w      9 calls
JK: K1      :       0.00u       0.00s       0.00w     18 calls
JK: K2      :       0.00u       0.00s       0.00w     18 calls
JK: AO2USO  :       0.00u       0.00s       0.00w      9 calls
Form F      :       0.00u       0.00s       0.00w     14 calls
DIIS        :       0.00u       0.02s       0.00w     14 calls
Form C      :       0.00u       0.00s       0.00w     14 calls
Form D      :       0.00u       0.00s       0.00w     14 calls
DIISManager::add_entry:       0.00u       0.02s       0.00w     13 calls
DIISManager::extrapolate:       0.00u       0.00s       0.00w     12 calls
DIISManager::extrapolate: bMatrix setup:       0.00u       0.00s       0.00w     12 calls
DIISManager::extrapolate: bMatrix pseudoinverse:       0.00u       0.00s       0.00w     12 calls
DIISManager::extrapolate: form new data:       0.00u       0.00s       0.00w     12 calls

***********************************************************

Host: wg-dhcp201d206d134.secure.wireless.fsu.

Timers On : Thu Jun  4 16:37:36 2015
Timers Off: Thu Jun  4 16:37:39 2015

Wall Time:        3.00 seconds

JK: (A|mn)  :       0.00u       0.00s       0.00w      1 call
JK: (A|Q)^-1/2:       0.03u       0.00s       0.00w      1 call
JK: (Q|mn)  :       0.00u       0.00s       0.00w      1 call
Form H      :       0.00u       0.00s       0.00w      1 call
Form S/X    :       0.00u       0.00s       0.00w      1 call
Guess       :       0.02u       0.00s       0.00w      1 call
Form G      :       0.02u       0.00s       0.00w     14 calls
JK: D       :       0.00u       0.00s       0.00w     14 calls
JK: USO2AO  :       0.00u       0.00s       0.00w      9 calls
JK: JK      :       0.02u       0.00s       0.00w     14 calls
JK: J       :       0.00u       0.00s       0.00w      9 calls
JK: J1      :       0.00u       0.00s       0.00w     18 calls
JK: J2      :       0.00u       0.00s       0.00w     18 calls
JK: K       :       0.00u       0.00s       0.00w      9 calls
JK: K1      :       0.00u       0.00s       0.00w     18 calls
JK: K2      :       0.00u       0.00s       0.00w     18 calls
JK: AO2USO  :       0.00u       0.00s       0.00w      9 calls
Form F      :       0.00u       0.00s       0.00w     14 calls
DIIS        :       0.00u       0.00s       0.00w     14 calls
Form C      :       0.00u       0.00s       0.00w     14 calls
Form D      :       0.00u       0.00s       0.00w     14 calls
DIISManager::add_entry:       0.00u       0.00s       0.00w     13 calls
DIISManager::extrapolate:       0.00u       0.00s       0.00w     12 calls
DIISManager::extrapolate: bMatrix setup:       0.00u       0.00s       0.00w     12 calls
DIISManager::extrapolate: bMatrix pseudoinverse:       0.00u       0.00s       0.00w     12 calls
DIISManager::extrapolate: form new data:       0.00u       0.00s       0.00w     12 calls

***********************************************************

Host: wg-dhcp201d206d134.secure.wireless.fsu.

Timers On : Thu Jun  4 16:40:22 2015
Timers Off: Thu Jun  4 16:40:24 2015

Wall Time:        2.00 seconds

JK: (A|mn)  :       0.00u       0.00s       0.00w      1 call
JK: (A|Q)^-1/2:       0.03u       0.00s       0.00w      1 call
JK: (Q|mn)  :       0.00u       0.00s       0.00w      1 call
Form H      :       0.00u       0.00s       0.00w      1 call
Form S/X    :       0.00u       0.00s       0.00w      1 call
Guess       :       0.02u       0.00s       0.00w      1 call
Form G      :       0.00u       0.00s       0.00w     14 calls
JK: D       :       0.00u       0.00s       0.00w     14 calls
JK: USO2AO  :       0.00u       0.00s       0.00w      9 calls
JK: JK      :       0.00u       0.00s       0.00w     14 calls
JK: J       :       0.00u       0.00s       0.00w      9 calls
JK: J1      :       0.00u       0.00s       0.00w     18 calls
JK: J2      :       0.00u       0.00s       0.00w     18 calls
JK: K       :       0.00u       0.00s       0.00w      9 calls
JK: K1      :       0.00u       0.00s       0.00w     18 calls
JK: K2      :       0.00u       0.00s       0.00w     18 calls
JK: AO2USO  :       0.00u       0.00s       0.00w      9 calls
Form F      :       0.00u       0.00s       0.00w     14 calls
DIIS        :       0.00u       0.00s       0.00w     14 calls
Form C      :       0.00u       0.00s       0.00w     14 calls
Form D      :       0.00u       0.00s       0.00w     14 calls
DIISManager::add_entry:       0.00u       0.00s       0.00w     13 calls
DIISManager::extrapolate:       0.00u       0.00s       0.00w     12 calls
DIISManager::extrapolate: bMatrix setup:       0.00u       0.00s       0.00w     12 calls
DIISManager::extrapolate: bMatrix pseudoinverse:       0.00u       0.00s       0.00w     12 calls
DIISManager::extrapolate: form new data:       0.00u       0.00s       0.00w     12 calls

***********************************************************

Host: wg-dhcp201d206d134.secure.wireless.fsu.

Timers On : Thu Jun  4 16:44:22 2015
Timers Off: Thu Jun  4 16:44:25 2015

Wall Time:        3.00 seconds

JK: (A|mn)  :       0.00u       0.00s       0.00w      1 call
JK: (A|Q)^-1/2:       0.02u       0.00s       0.00w      1 call
JK: (Q|mn)  :       0.00u       0.00s       0.00w      1 call
Form H      :       0.00u       0.00s       0.00w      1 call
Form S/X    :       0.00u       0.00s       0.00w      1 call
Guess       :       0.03u       0.00s       0.00w      1 call
Form G      :       0.00u       0.00s       0.00w     14 calls
JK: D       :       0.00u       0.00s       0.00w     14 calls
JK: USO2AO  :       0.00u       0.00s       0.00w      9 calls
JK: JK      :       0.00u       0.00s       0.00w     14 calls
JK: J       :       0.00u       0.00s       0.00w      9 calls
JK: J1      :       0.00u       0.00s       0.00w     18 calls
JK: J2      :       0.00u       0.00s       0.00w     18 calls
JK: K       :       0.00u       0.00s       0.00w      9 calls
JK: K1      :       0.00u       0.00s       0.00w     18 calls
JK: K2      :       0.00u       0.00s       0.00w     18 calls
JK: AO2USO  :       0.00u       0.00s       0.00w      9 calls
Form F      :       0.00u       0.00s       0.00w     14 calls
DIIS        :       0.00u       0.00s       0.00w     14 calls
Form C      :       0.00u       0.00s       0.00w     14 calls
Form D      :       0.00u       0.00s       0.00w     14 calls
DIISManager::add_entry:       0.00u       0.00s       0.00w     13 calls
DIISManager::extrapolate:       0.00u       0.00s       0.00w     12 calls
DIISManager::extrapolate: bMatrix setup:       0.00u       0.00s       0.00w     12 calls
DIISManager::extrapolate: bMatrix pseudoinverse:       0.00u       0.00s       0.00w     12 calls
DIISManager::extrapolate: form new data:       0.00u       0.00s       0.00w     12 calls

***********************************************************

Host: wg-dhcp201d206d134.secure.wireless.fsu.

Timers On : Thu Jun  4 17:00:57 2015
Timers Off: Thu Jun  4 17:00:59 2015

Wall Time:        2.00 seconds

JK: (A|mn)  :       0.00u       0.00s       0.00w      1 call
JK: (A|Q)^-1/2:       0.02u       0.00s       0.00w      1 call
JK: (Q|mn)  :       0.00u       0.00s       0.00w      1 call
Form H      :       0.00u       0.02s       0.00w      1 call
Form S/X    :       0.00u       0.00s       0.00w      1 call
Guess       :       0.03u       0.00s       0.00w      1 call
Form G      :       0.00u       0.00s       0.00w     14 calls
JK: D       :       0.00u       0.00s       0.00w     14 calls
JK: USO2AO  :       0.00u       0.00s       0.00w      9 calls
JK: JK      :       0.00u       0.00s       0.00w     14 calls
JK: J       :       0.00u       0.00s       0.00w      9 calls
JK: J1      :       0.00u       0.00s       0.00w     18 calls
JK: J2      :       0.00u       0.00s       0.00w     18 calls
JK: K       :       0.00u       0.00s       0.00w      9 calls
JK: K1      :       0.00u       0.00s       0.00w     18 calls
JK: K2      :       0.00u       0.00s       0.00w     18 calls
JK: AO2USO  :       0.00u       0.00s       0.00w      9 calls
Form F      :       0.00u       0.00s       0.00w     14 calls
DIIS        :       0.00u       0.00s       0.00w     14 calls
Form C      :       0.00u       0.00s       0.00w     14 calls
Form D      :       0.00u       0.00s       0.00w     14 calls
DIISManager::add_entry:       0.00u       0.00s       0.00w     13 calls
DIISManager::extrapolate:       0.00u       0.00s       0.00w     12 calls
DIISManager::extrapolate: bMatrix setup:       0.00u       0.00s       0.00w     12 calls
DIISManager::extrapolate: bMatrix pseudoinverse:       0.00u       0.00s       0.00w     12 calls
DIISManager::extrapolate: form new data:       0.00u       0.00s       0.00w     12 calls

***********************************************************

Host: wg-dhcp201d206d134.secure.wireless.fsu.

Timers On : Thu Jun  4 17:05:23 2015
Timers Off: Thu Jun  4 17:05:23 2015

Wall Time:        0.00 seconds

JK: (A|mn)  :       0.00u       0.00s       0.00w      1 call
JK: (A|Q)^-1/2:       0.02u       0.00s       0.00w      1 call
JK: (Q|mn)  :       0.00u       0.00s       0.00w      1 call
Form H      :       0.00u       0.00s       0.00w      1 call
Form S/X    :       0.00u       0.00s       0.00w      1 call
Guess       :       0.03u       0.00s       0.00w      1 call
Form G      :       0.00u       0.00s       0.00w     14 calls
JK: D       :       0.00u       0.00s       0.00w     14 calls
JK: USO2AO  :       0.00u       0.00s       0.00w      9 calls
JK: JK      :       0.00u       0.00s       0.00w     14 calls
JK: J       :       0.00u       0.00s       0.00w      9 calls
JK: J1      :       0.00u       0.00s       0.00w     18 calls
JK: J2      :       0.00u       0.00s       0.00w     18 calls
JK: K       :       0.00u       0.00s       0.00w      9 calls
JK: K1      :       0.00u       0.00s       0.00w     18 calls
JK: K2      :       0.00u       0.00s       0.00w     18 calls
JK: AO2USO  :       0.00u       0.00s       0.00w      9 calls
Form F      :       0.00u       0.00s       0.00w     14 calls
DIIS        :       0.00u       0.00s       0.00w     14 calls
Form C      :       0.00u       0.00s       0.00w     14 calls
Form D      :       0.00u       0.00s       0.00w     14 calls
DIISManager::add_entry:       0.00u       0.00s       0.00w     13 calls
DIISManager::extrapolate:       0.00u       0.00s       0.00w     12 calls
DIISManager::extrapolate: bMatrix setup:       0.00u       0.00s       0.00w     12 calls
DIISManager::extrapolate: bMatrix pseudoinverse:       0.00u       0.00s       0.00w     12 calls
DIISManager::extrapolate: form new data:       0.00u       0.00s       0.00w     12 calls

***********************************************************

Host: wg-dhcp201d206d134.secure.wireless.fsu.

Timers On : Thu Jun  4 17:06:10 2015
Timers Off: Thu Jun  4 17:06:11 2015

Wall Time:        1.00 seconds

JK: (A|mn)  :       0.00u       0.00s       0.00w      1 call
JK: (A|Q)^-1/2:       0.02u       0.00s       0.00w      1 call
JK: (Q|mn)  :       0.00u       0.00s       0.00w      1 call
Form H      :       0.00u       0.00s       0.00w      1 call
Form S/X    :       0.00u       0.00s       0.00w      1 call
Guess       :       0.03u       0.00s       1.00w      1 call
Form G      :       0.00u       0.00s       0.00w     14 calls
JK: D       :       0.00u       0.00s       0.00w     14 calls
JK: USO2AO  :       0.00u       0.00s       0.00w      9 calls
JK: JK      :       0.00u       0.00s       0.00w     14 calls
JK: J       :       0.00u       0.00s       0.00w      9 calls
JK: J1      :       0.00u       0.00s       0.00w     18 calls
JK: J2      :       0.00u       0.00s       0.00w     18 calls
JK: K       :       0.00u       0.00s       0.00w      9 calls
JK: K1      :       0.00u       0.00s       0.00w     18 calls
JK: K2      :       0.00u       0.00s       0.00w     18 calls
JK: AO2USO  :       0.00u       0.00s       0.00w      9 calls
Form F      :       0.00u       0.00s       0.00w     14 calls
DIIS        :       0.00u       0.00s       0.00w     14 calls
Form C      :       0.00u       0.00s       0.00w     14 calls
Form D      :       0.00u       0.00s       0.00w     14 calls
DIISManager::add_entry:       0.00u       0.00s       0.00w     13 calls
DIISManager::extrapolate:       0.00u       0.00s       0.00w     12 calls
DIISManager::extrapolate: bMatrix setup:       0.00u       0.00s       0.00w     12 calls
DIISManager::extrapolate: bMatrix pseudoinverse:       0.00u       0.00s       0.00w     12 calls
DIISManager::extrapolate: form new data:       0.00u       0.00s       0.00w     12 calls

***********************************************************

Host: wg-dhcp201d206d134.secure.wireless.fsu.

Timers On : Thu Jun  4 17:06:26 2015
Timers Off: Thu Jun  4 17:06:28 2015

Wall Time:        2.00 seconds

JK: (A|mn)  :       0.00u       0.00s       0.00w      1 call
JK: (A|Q)^-1/2:       0.02u       0.00s       0.00w      1 call
JK: (Q|mn)  :       0.00u       0.00s       0.00w      1 call
Form H      :       0.00u       0.00s       0.00w      1 call
Form S/X    :       0.00u       0.00s       0.00w      1 call
Guess       :       0.03u       0.00s       0.00w      1 call
Form G      :       0.00u       0.00s       0.00w     14 calls
JK: D       :       0.00u       0.00s       0.00w     14 calls
JK: USO2AO  :       0.00u       0.00s       0.00w      9 calls
JK: JK      :       0.00u       0.00s       0.00w     14 calls
JK: J       :       0.00u       0.00s       0.00w      9 calls
JK: J1      :       0.00u       0.00s       0.00w     18 calls
JK: J2      :       0.00u       0.00s       0.00w     18 calls
JK: K       :       0.00u       0.00s       0.00w      9 calls
JK: K1      :       0.00u       0.00s       0.00w     18 calls
JK: K2      :       0.00u       0.00s       0.00w     18 calls
JK: AO2USO  :       0.00u       0.00s       0.00w      9 calls
Form F      :       0.00u       0.00s       0.00w     14 calls
DIIS        :       0.00u       0.00s       0.00w     14 calls
Form C      :       0.00u       0.00s       0.00w     14 calls
Form D      :       0.00u       0.00s       0.00w     14 calls
DIISManager::add_entry:       0.00u       0.00s       0.00w     13 calls
DIISManager::extrapolate:       0.00u       0.00s       0.00w     12 calls
DIISManager::extrapolate: bMatrix setup:       0.00u       0.00s       0.00w     12 calls
DIISManager::extrapolate: bMatrix pseudoinverse:       0.00u       0.00s       0.00w     12 calls
DIISManager::extrapolate: form new data:       0.00u       0.00s       0.00w     12 calls

[...]
DIISManager::extrapolate:       0.00u       0.00s       0.00w     13 calls
DIISManager::extrapolate: bMatrix setup:       0.00u       0.00s       0.00w     13 calls
DIISManager::extrapolate: bMatrix pseudoinverse:       0.00u       0.00s       0.00w     13 calls
DIISManager::extrapolate: form new data:       0.00u       0.00s       0.00w     13 calls

***********************************************************

Host: Eugenes-MacBook-Pro-2.local

Timers On : Thu Jun  4 22:24:09 2015
Timers Off: Thu Jun  4 22:24:12 2015

Wall Time:        3.00 seconds

JK: (A|mn)  :       0.00u       0.00s       0.00w      1 call
JK: (A|Q)^-1/2:       0.03u       0.00s       0.00w      1 call
JK: (Q|mn)  :       0.00u       0.00s       0.00w      1 call
Form H      :       0.00u       0.00s       0.00w      1 call
Form S/X    :       0.00u       0.00s       0.00w      1 call
Guess       :       0.02u       0.00s       0.00w      1 call
Form G      :       0.02u       0.02s       0.00w     14 calls
JK: D       :       0.00u       0.00s       0.00w     14 calls
JK: USO2AO  :       0.00u       0.00s       0.00w      9 calls
JK: JK      :       0.02u       0.02s       0.00w     14 calls
JK: J       :       0.00u       0.02s       0.00w      9 calls
JK: J1      :       0.00u       0.00s       0.00w     18 calls
JK: J2      :       0.00u       0.00s       0.00w     18 calls
JK: K       :       0.00u       0.00s       0.00w      9 calls
JK: K1      :       0.00u       0.00s       0.00w     18 calls
JK: K2      :       0.00u       0.00s       0.00w     18 calls
JK: AO2USO  :       0.00u       0.00s       0.00w      9 calls
Form F      :       0.00u       0.00s       0.00w     14 calls
DIIS        :       0.00u       0.00s       0.00w     14 calls
Form C      :       0.00u       0.00s       0.00w     14 calls
Form D      :       0.00u       0.00s       0.00w     14 calls
DIISManager::add_entry:       0.00u       0.00s       0.00w     13 calls
DIISManager::extrapolate:       0.00u       0.00s       0.00w     12 calls
DIISManager::extrapolate: bMatrix setup:       0.00u       0.00s       0.00w     12 calls
DIISManager::extrapolate: bMatrix pseudoinverse:       0.00u       0.00s       0.00w     12 calls
DIISManager::extrapolate: form new data:       0.00u       0.00s       0.00w     12 calls

***********************************************************

Host: Eugenes-MacBook-Pro-2.local

Timers On : Fri Jun  5 07:24:14 2015
Timers Off: Fri Jun  5 07:24:17 2015

Wall Time:        3.00 seconds

JK: (A|mn)  :       0.00u       0.00s       0.00w      1 call
JK: (A|Q)^-1/2:       0.02u       0.00s       0.00w      1 call
JK: (Q|mn)  :       0.00u       0.00s       0.00w      1 call
Form H      :       0.00u       0.00s       0.00w      1 call
Form S/X    :       0.00u       0.00s       0.00w      1 call
Guess       :       0.03u       0.00s       0.00w      1 call
Form G      :       0.00u       0.00s       0.00w     14 calls
JK: D       :       0.00u       0.00s       0.00w     14 calls
JK: USO2AO  :       0.00u       0.00s       0.00w      9 calls
JK: JK      :       0.00u       0.00s       0.00w     14 calls
JK: J       :       0.00u       0.00s       0.00w      9 calls
JK: J1      :       0.00u       0.00s       0.00w     18 calls
JK: J2      :       0.00u       0.00s       0.00w     18 calls
JK: K       :       0.00u       0.00s       0.00w      9 calls
JK: K1      :       0.00u       0.00s       0.00w     18 calls
JK: K2      :       0.00u       0.00s       0.00w     18 calls
JK: AO2USO  :       0.00u       0.00s       0.00w      9 calls
Form F      :       0.00u       0.00s       0.00w     14 calls
DIIS        :       0.00u       0.00s       0.00w     14 calls
Form C      :       0.00u       0.00s       0.00w     14 calls
Form D      :       0.00u       0.00s       0.00w     14 calls
DIISManager::add_entry:       0.00u       0.00s       0.00w     13 calls
DIISManager::extrapolate:       0.00u       0.00s       0.00w     12 calls
DIISManager::extrapolate: bMatrix setup:       0.00u       0.00s       0.00w     12 calls
DIISManager::extrapolate: bMatrix pseudoinverse:       0.00u       0.00s       0.00w     12 calls
DIISManager::extrapolate: form new data:       0.00u       0.00s       0.00w     12 calls

***********************************************************

Host: Eugenes-MacBook-Pro-2.local

Timers On : Fri Jun  5 07:25:46 2015
Timers Off: Fri Jun  5 07:25:49 2015

Wall Time:        3.00 seconds

JK: (A|mn)  :       0.00u       0.00s       0.00w      1 call
JK: (A|Q)^-1/2:       0.02u       0.00s       0.00w      1 call
JK: (Q|mn)  :       0.00u       0.00s       0.00w      1 call
Form H      :       0.00u       0.00s       0.00w      1 call
Form S/X    :       0.00u       0.00s       0.00w      1 call
Guess       :       0.03u       0.00s       0.00w      1 call
Form G      :       0.00u       0.00s       0.00w     14 calls
JK: D       :       0.00u       0.00s       0.00w     14 calls
JK: USO2AO  :       0.00u       0.00s       0.00w      9 calls
JK: JK      :       0.00u       0.00s       0.00w     14 calls
JK: J       :       0.00u       0.00s       0.00w      9 calls
JK: J1      :       0.00u       0.00s       0.00w     18 calls
JK: J2      :       0.00u       0.00s       0.00w     18 calls
JK: K       :       0.00u       0.00s       0.00w      9 calls
JK: K1      :       0.00u       0.00s       0.00w     18 calls
JK: K2      :       0.00u       0.00s       0.00w     18 calls
JK: AO2USO  :       0.00u       0.00s       0.00w      9 calls
Form F      :       0.00u       0.00s       0.00w     14 calls
DIIS        :       0.00u       0.00s       0.00w     14 calls
Form C      :       0.00u       0.00s       0.00w     14 calls
Form D      :       0.00u       0.00s       0.00w     14 calls
DIISManager::add_entry:       0.00u       0.00s       0.00w     13 calls
DIISManager::extrapolate:       0.00u       0.00s       0.00w     12 calls
DIISManager::extrapolate: bMatrix setup:       0.00u       0.00s       0.00w     12 calls
DIISManager::extrapolate: bMatrix pseudoinverse:       0.00u       0.00s       0.00w     12 calls
DIISManager::extrapolate: form new data:       0.00u       0.00s       0.00w     12 calls

***********************************************************

Host: Eugenes-MacBook-Pro-2.local

Timers On : Fri Jun  5 07:28:39 2015
Timers Off: Fri Jun  5 07:28:42 2015

Wall Time:        3.00 seconds

JK: (A|mn)  :       0.00u       0.00s       0.00w      1 call
JK: (A|Q)^-1/2:       0.02u       0.00s       0.00w      1 call
JK: (Q|mn)  :       0.00u       0.00s       0.00w      1 call
Form H      :       0.00u       0.00s       0.00w      1 call
Form S/X    :       0.00u       0.00s       0.00w      1 call
Guess       :       0.03u       0.00s       0.00w      1 call
Form G      :       0.00u       0.00s       0.00w     14 calls
JK: D       :       0.00u       0.00s       0.00w     14 calls
JK: USO2AO  :       0.00u       0.00s       0.00w      9 calls
JK: JK      :       0.00u       0.00s       0.00w     14 calls
JK: J       :       0.00u       0.00s       0.00w      9 calls
JK: J1      :       0.00u       0.00s       0.00w     18 calls
JK: J2      :       0.00u       0.00s       0.00w     18 calls
JK: K       :       0.00u       0.00s       0.00w      9 calls
JK: K1      :       0.00u       0.00s       0.00w     18 calls
JK: K2      :       0.00u       0.00s       0.00w     18 calls
JK: AO2USO  :       0.00u       0.00s       0.00w      9 calls
Form F      :       0.00u       0.00s       0.00w     14 calls
DIIS        :       0.00u       0.00s       0.00w     14 calls
Form C      :       0.00u       0.00s       0.00w     14 calls
Form D      :       0.00u       0.00s       0.00w     14 calls
DIISManager::add_entry:       0.00u       0.00s       0.00w     13 calls
DIISManager::extrapolate:       0.00u       0.00s       0.00w     12 calls
DIISManager::extrapolate: bMatrix setup:       0.00u       0.00s       0.00w     12 calls
DIISManager::extrapolate: bMatrix pseudoinverse:       0.00u       0.00s       0.00w     12 calls
DIISManager::extrapolate: form new data:       0.00u       0.00s       0.00w     12 calls

***********************************************************

Host: wg-dhcp201d206d077.secure.wireless.fsu.

Timers On : Wed Jun 17 13:44:02 2015
Timers Off: Wed Jun 17 13:44:05 2015

Wall Time:        3.00 seconds

JK: (A|mn)  :       0.00u       0.00s       0.00w      1 call
JK: (A|Q)^-1/2:       0.03u       0.02s       0.00w      1 call
JK: (Q|mn)  :       0.00u       0.00s       0.00w      1 call
Form H      :       0.00u       0.00s       0.00w      1 call
Form S/X    :       0.00u       0.00s       0.00w      1 call
Guess       :       0.02u       0.00s       0.00w      1 call
Form G      :       0.02u       0.00s       0.00w     14 calls
JK: D       :       0.00u       0.00s       0.00w     14 calls
JK: USO2AO  :       0.00u       0.00s       0.00w      9 calls
JK: JK      :       0.02u       0.00s       0.00w     14 calls
JK: J       :       0.00u       0.00s       0.00w      9 calls
JK: J1      :       0.00u       0.00s       0.00w     18 calls
JK: J2      :       0.00u       0.00s       0.00w     18 calls
JK: K       :       0.02u       0.00s       0.00w      9 calls
JK: K1      :       0.02u       0.00s       0.00w     18 calls
JK: K2      :       0.00u       0.00s       0.00w     18 calls
JK: AO2USO  :       0.00u       0.00s       0.00w      9 calls
Form F      :       0.00u       0.00s       0.00w     14 calls
DIIS        :       0.00u       0.00s       0.00w     14 calls
Form C      :       0.00u       0.00s       0.00w     14 calls
Form D      :       0.00u       0.00s       0.00w     14 calls
DIISManager::add_entry:       0.00u       0.00s       0.00w     13 calls
DIISManager::extrapolate:       0.00u       0.00s       0.00w     12 calls
DIISManager::extrapolate: bMatrix setup:       0.00u       0.00s       0.00w     12 calls
DIISManager::extrapolate: bMatrix pseudoinverse:       0.00u       0.00s       0.00w     12 calls
DIISManager::extrapolate: form new data:       0.00u       0.00s       0.00w     12 calls

***********************************************************

Host: wg-dhcp201d206d077.secure.wireless.fsu.

Timers On : Wed Jun 17 13:44:09 2015
Timers Off: Wed Jun 17 13:44:11 2015

Wall Time:        2.00 seconds

JK: (A|mn)  :       0.00u       0.00s       0.00w      1 call
JK: (A|Q)^-1/2:       0.02u       0.00s       0.00w      1 call
JK: (Q|mn)  :       0.02u       0.00s       0.00w      1 call
Form H      :       0.00u       0.00s       0.00w      1 call
Form S/X    :       0.00u       0.00s       0.00w      1 call
Guess       :       0.02u       0.00s       0.00w      1 call
Form G      :       0.00u       0.00s       0.00w     14 calls
JK: D       :       0.00u       0.00s       0.00w     14 calls
JK: USO2AO  :       0.00u       0.00s       0.00w      9 calls
JK: JK      :       0.00u       0.00s       0.00w     14 calls
JK: J       :       0.00u       0.00s       0.00w      9 calls
JK: J1      :       0.00u       0.00s       0.00w     18 calls
JK: J2      :       0.00u       0.00s       0.00w     18 calls
JK: K       :       0.00u       0.00s       0.00w      9 calls
JK: K1      :       0.00u       0.00s       0.00w     18 calls
JK: K2      :       0.00u       0.00s       0.00w     18 calls
JK: AO2USO  :       0.00u       0.00s       0.00w      9 calls
Form F      :       0.00u       0.00s       0.00w     14 calls
DIIS        :       0.00u       0.00s       0.00w     14 calls
Form C      :       0.00u       0.00s       0.00w     14 calls
Form D      :       0.00u       0.00s       0.00w     14 calls
DIISManager::add_entry:       0.00u       0.00s       0.00w     13 calls
DIISManager::extrapolate:       0.00u       0.00s       0.00w     12 calls
DIISManager::extrapolate: bMatrix setup:       0.00u       0.00s       0.00w     12 calls
DIISManager::extrapolate: bMatrix pseudoinverse:       0.00u       0.00s       0.00w     12 calls
DIISManager::extrapolate: form new data:       0.00u       0.00s       0.00w     12 calls

***********************************************************

Host: wg-dhcp201d206d077.secure.wireless.fsu.

Timers On : Wed Jun 17 13:44:48 2015
Timers Off: Wed Jun 17 13:44:50 2015

Wall Time:        2.00 seconds

JK: (A|mn)  :       0.00u       0.00s       0.00w      1 call
JK: (A|Q)^-1/2:       0.03u       0.00s       0.00w      1 call
JK: (Q|mn)  :       0.00u       0.00s       0.00w      1 call
Form H      :       0.00u       0.00s       0.00w      1 call
Form S/X    :       0.00u       0.00s       0.00w      1 call
Guess       :       0.02u       0.00s       0.00w      1 call
Form G      :       0.00u       0.00s       0.00w     14 calls
JK: D       :       0.00u       0.00s       0.00w     14 calls
JK: USO2AO  :       0.00u       0.00s       0.00w      9 calls
JK: JK      :       0.00u       0.00s       0.00w     14 calls
JK: J       :       0.00u       0.00s       0.00w      9 calls
JK: J1      :       0.00u       0.00s       0.00w     18 calls
JK: J2      :       0.00u       0.00s       0.00w     18 calls
JK: K       :       0.00u       0.00s       0.00w      9 calls
JK: K1      :       0.00u       0.00s       0.00w     18 calls
JK: K2      :       0.00u       0.00s       0.00w     18 calls
JK: AO2USO  :       0.00u       0.00s       0.00w      9 calls
Form F      :       0.00u       0.00s       0.00w     14 calls
DIIS        :       0.00u       0.00s       0.00w     14 calls
Form C      :       0.00u       0.00s       0.00w     14 calls
Form D      :       0.00u       0.00s       0.00w     14 calls
DIISManager::add_entry:       0.00u       0.00s       0.00w     13 calls
DIISManager::extrapolate:       0.00u       0.00s       0.00w     12 calls
DIISManager::extrapolate: bMatrix setup:       0.00u       0.00s       0.00w     12 calls
DIISManager::extrapolate: bMatrix pseudoinverse:       0.00u       0.00s       0.00w     12 calls
DIISManager::extrapolate: form new data:       0.00u       0.00s       0.00w     12 calls

***********************************************************

Host: wg-dhcp201d206d077.secure.wireless.fsu.

Timers On : Wed Jun 17 13:44:50 2015
Timers Off: Wed Jun 17 13:44:53 2015

Wall Time:        3.00 seconds

JK: (A|mn)  :       0.00u       0.00s       0.00w      1 call
JK: (A|Q)^-1/2:       0.03u       0.00s       0.00w      1 call
JK: (Q|mn)  :       0.00u       0.00s       0.00w      1 call
Form H      :       0.00u       0.00s       0.00w      1 call
Form S/X    :       0.00u       0.00s       0.00w      1 call
Guess       :       0.02u       0.00s       0.00w      1 call
Form G      :       0.02u       0.00s       0.00w     14 calls
JK: D       :       0.00u       0.00s       0.00w     14 calls
JK: USO2AO  :       0.00u       0.00s       0.00w      9 calls
JK: JK      :       0.02u       0.00s       0.00w     14 calls
JK: J       :       0.00u       0.00s       0.00w      9 calls
JK: J1      :       0.00u       0.00s       0.00w     18 calls
JK: J2      :       0.00u       0.00s       0.00w     18 calls
JK: K       :       0.02u       0.00s       0.00w      9 calls
JK: K1      :       0.00u       0.00s       0.00w     18 calls
JK: K2      :       0.02u       0.00s       0.00w     18 calls
JK: AO2USO  :       0.00u       0.00s       0.00w      9 calls
Form F      :       0.00u       0.00s       0.00w     14 calls
DIIS        :       0.00u       0.00s       0.00w     14 calls
Form C      :       0.00u       0.00s       0.00w     14 calls
Form D      :       0.00u       0.00s       0.00w     14 calls
DIISManager::add_entry:       0.00u       0.00s       0.00w     13 calls
DIISManager::extrapolate:       0.00u       0.00s       0.00w     12 calls
DIISManager::extrapolate: bMatrix setup:       0.00u       0.00s       0.00w     12 calls
DIISManager::extrapolate: bMatrix pseudoinverse:       0.00u       0.00s       0.00w     12 calls
DIISManager::extrapolate: form new data:       0.00u       0.00s       0.00w     12 calls

***********************************************************

Host: wg-dhcp201d207d142.secure.wireless.fsu.

Timers On : Thu Jul 23 15:24:30 2015
Timers Off: Thu Jul 23 15:24:33 2015

Wall Time:        3.00 seconds

JK: (A|mn)  :       0.02u       0.00s       0.00w      1 call
JK: (A|Q)^-1/2:       0.03u       0.00s       0.00w      1 call
JK: (Q|mn)  :       0.00u       0.00s       0.00w      1 call
Form H      :       0.00u       0.00s       0.00w      1 call
Form S/X    :       0.00u       0.00s       0.00w      1 call
Guess       :       0.27u       0.00s       0.00w      1 call
Form G      :       0.02u       0.00s       0.00w     15 calls
JK: D       :       0.00u       0.00s       0.00w     15 calls
JK: USO2AO  :       0.00u       0.00s       0.00w      9 calls
JK: JK      :       0.02u       0.00s       0.00w     15 calls
JK: J       :       0.00u       0.00s       0.00w      9 calls
JK: J1      :       0.00u       0.00s       0.00w     18 calls
JK: J2      :       0.00u       0.00s       0.00w     18 calls
JK: K       :       0.02u       0.00s       0.00w      9 calls
JK: K1      :       0.00u       0.00s       0.00w     18 calls
JK: K2      :       0.02u       0.00s       0.00w     18 calls
JK: AO2USO  :       0.00u       0.00s       0.00w      9 calls
Form F      :       0.00u       0.00s       0.00w     15 calls
DIIS        :       0.00u       0.00s       0.00w     15 calls
Form C      :       0.00u       0.00s       0.00w     15 calls
Form D      :       0.00u       0.00s       0.00w     15 calls
DIISManager::add_entry:       0.00u       0.00s       0.00w     14 calls
DIISManager::extrapolate:       0.00u       0.00s       0.00w     13 calls
DIISManager::extrapolate: bMatrix setup:       0.00u       0.00s       0.00w     13 calls
DIISManager::extrapolate: bMatrix pseudoinverse:       0.00u       0.00s       0.00w     13 calls
DIISManager::extrapolate: form new data:       0.00u       0.00s       0.00w     13 calls

***********************************************************

Host: wg-dhcp201d207d142.secure.wireless.fsu.

Timers On : Thu Jul 23 15:24:38 2015
Timers Off: Thu Jul 23 15:24:40 2015

Wall Time:        2.00 seconds

JK: (A|mn)  :       0.00u       0.00s       0.00w      1 call
JK: (A|Q)^-1/2:       0.03u       0.00s       0.00w      1 call
JK: (Q|mn)  :       0.00u       0.00s       0.00w      1 call
Form H      :       0.00u       0.00s       0.00w      1 call
Form S/X    :       0.00u       0.00s       0.00w      1 call
Guess       :       0.25u       0.00s       0.00w      1 call
Form G      :       0.02u       0.00s       0.00w     15 calls
JK: D       :       0.00u       0.00s       0.00w     15 calls
JK: USO2AO  :       0.00u       0.00s       0.00w      9 calls
JK: JK      :       0.02u       0.00s       0.00w     15 calls
JK: J       :       0.00u       0.00s       0.00w      9 calls
JK: J1      :       0.00u       0.00s       0.00w     18 calls
JK: J2      :       0.00u       0.00s       0.00w     18 calls
JK: K       :       0.02u       0.00s       0.00w      9 calls
JK: K1      :       0.00u       0.00s       0.00w     18 calls
JK: K2      :       0.02u       0.00s       0.00w     18 calls
JK: AO2USO  :       0.00u       0.00s       0.00w      9 calls
Form F      :       0.00u       0.00s       0.00w     15 calls
DIIS        :       0.00u       0.00s       0.00w     15 calls
Form C      :       0.00u       0.00s       0.00w     15 calls
Form D      :       0.00u       0.00s       0.00w     15 calls
DIISManager::add_entry:       0.00u       0.00s       0.00w     14 calls
DIISManager::extrapolate:       0.00u       0.00s       0.00w     13 calls
DIISManager::extrapolate: bMatrix setup:       0.00u       0.00s       0.00w     13 calls
DIISManager::extrapolate: bMatrix pseudoinverse:       0.00u       0.00s       0.00w     13 calls
DIISManager::extrapolate: form new data:       0.00u       0.00s       0.00w     13 calls

***********************************************************
