
    -----------------------------------------------------------------------
          Psi4: An Open-Source Ab Initio Electronic Structure Package
                               Psi4 1.2rc3.dev1 

                         Git: Rev {master} b0f5b75 dirty


    R. M. Parrish, L. A. Burns, D. G. A. Smith, A. C. Simmonett,
    A. E. DePrince III, E. G. Hohenstein, U. Bozkaya, A. Yu. Sokolov,
    R. Di Remigio, R. M. Richard, J. F. Gonthier, A. M. James,
    H. R. McAlexander, A. Kumar, M. Saitow, X. Wang, B. P. Pritchard,
    P. Verma, H. F. Schaefer III, K. Patkowski, R. A. King, E. F. Valeev,
    F. A. Evangelista, J. M. Turney, T. D. Crawford, and C. D. Sherrill,
    J. Chem. Theory Comput. 13(7) pp 3185--3197 (2017).
    (doi: 10.1021/acs.jctc.7b00174)

    -----------------------------------------------------------------------


    Psi4 started on: Thursday, 14 June 2018 05:08PM

    Process ID: 6754
    Host:       ed10
    PSIDATADIR: /edfs/users/rainli/Software/psi4_20180521/psi4/install/share/psi4
    Memory:     500.0 MiB
    Threads:    1
    
  ==> Input File <==

--------------------------------------------------------------------------
#! STO-3g benzene (6,6) guess orbital rotation test DQG

# job description:
print('        benzene (6,6), scf_type = PK')

sys.path.insert(0, '../../..')
import v2rdm_casscf

# orbital rotation needed before MCSCF calculation
molecule benzene_c1 {
0 1
symmetry c1
 C                  0.00000000    1.38980400    0.00000000
 C                  1.20360500    0.69490200    0.00000000
 C                  1.20360500   -0.69490200    0.00000000
 C                  0.00000000   -1.38980400    0.00000000
 C                 -1.20360500   -0.69490200    0.00000000
 C                 -1.20360500    0.69490200    0.00000000
 H                  0.00000000    2.47523400    0.00000000
 H                  2.14361600    1.23761700    0.00000000
 H                  2.14361600   -1.23761700    0.00000000
 H                  0.00000000   -2.47523400    0.00000000
 H                 -2.14361600   -1.23761700    0.00000000
 H                 -2.14361600    1.23761700    0.00000000
}

set {
  basis sto-3g
  scf_type pk
  d_convergence      1e-10
  maxiter 500
  restricted_docc [ 18 ]
  active          [ 6  ]
}

energy ('hf')

set v2rdm_casscf {
# Switch the 17th (index 16) and the 19th (index 18) orbitals of the 1st irrep (index 0)
# If more than one set of orbitals need to be rotated, use the following syntex
# mcscf_rotate [[irrep_1, orb1_1, orb2_1, theta_1], [irrep_2, orb1_2, orb2_2, theta2],...]
# Setting theta to 90 would switch the orbitals, setting it to 0 does nothing.
  mcscf_rotate [[ 0, 16, 18, 90 ]]
  positivity dq
  r_convergence  1e-5
  e_convergence  1e-6
  maxiter 20000
  guess_orbitals_write false
  molden_write false
}

activate(benzene_c1)

E_c1=energy('v2rdm-casscf')


clean()

# reference calculation, no need to rotate orbitals for MCSCF
molecule benzene_d2h {
0 1
symmetry d2h
 C                  0.00000000    1.38980400    0.00000000
 C                  1.20360500    0.69490200    0.00000000
 C                  1.20360500   -0.69490200    0.00000000
 C                  0.00000000   -1.38980400    0.00000000
 C                 -1.20360500   -0.69490200    0.00000000
 C                 -1.20360500    0.69490200    0.00000000
 H                  0.00000000    2.47523400    0.00000000
 H                  2.14361600    1.23761700    0.00000000
 H                  2.14361600   -1.23761700    0.00000000
 H                  0.00000000   -2.47523400    0.00000000
 H                 -2.14361600   -1.23761700    0.00000000
 H                 -2.14361600    1.23761700    0.00000000
}

set {
  basis sto-3g
  scf_type pk
  d_convergence      1e-10
  maxiter 500
  restricted_docc [ 6, 3, 0, 0, 0, 0, 5, 4 ]
  active          [ 0, 0, 1, 2, 1, 2, 0, 0 ]
}

energy('hf')

set v2rdm_casscf {
# Note that when mcscf_rotate is set for the previous molecule, the calculations afterwards
#   also use this input, unless you overwrite it. A safe way to unset it is to overwrite it
#   with mcscf_rotate [[0, 0, 0, 0]], which should work as long as your molecule has at 
#   least 1 orbital in the 1st irrep. This problem can also be simply avoided by calculating 
#   the molecules that do not require orbital rotations first.
  mcscf_rotate [[ 0, 0, 0, 0 ]]
  positivity dq
  r_convergence  1e-5
  e_convergence  1e-6
  maxiter 20000
  guess_orbitals_write false
  molden_write false
}

activate(benzene_d2h)

E_d2h=energy('v2rdm-casscf')

compare_values(E_c1, E_d2h, 4, "v2RDM-CASSCF total energy") # TEST

--------------------------------------------------------------------------

*** tstart() called on ed10
*** at Thu Jun 14 17:08:23 2018

   => Loading Basis Set <=

    Name: STO-3G
    Role: ORBITAL
    Keyword: BASIS
    atoms 1-6  entry C          line    61 file /edfs/users/rainli/Software/psi4_20180521/psi4/install/share/psi4/basis/sto-3g.gbs 
    atoms 7-12 entry H          line    19 file /edfs/users/rainli/Software/psi4_20180521/psi4/install/share/psi4/basis/sto-3g.gbs 


         ---------------------------------------------------------
                                   SCF
            by Justin Turney, Rob Parrish, Andy Simmonett
                             and Daniel Smith
                              RHF Reference
                        1 Threads,    500 MiB Core
         ---------------------------------------------------------

  ==> Geometry <==

    Molecular point group: c1
    Full point group: D2h

    Geometry (in Angstrom), charge = 0, multiplicity = 1:

       Center              X                  Y                   Z               Mass       
    ------------   -----------------  -----------------  -----------------  -----------------
         C            0.000000000000     1.389804000000     0.000000000000    12.000000000000
         C            1.203605000000     0.694902000000     0.000000000000    12.000000000000
         C            1.203605000000    -0.694902000000     0.000000000000    12.000000000000
         C            0.000000000000    -1.389804000000     0.000000000000    12.000000000000
         C           -1.203605000000    -0.694902000000     0.000000000000    12.000000000000
         C           -1.203605000000     0.694902000000     0.000000000000    12.000000000000
         H            0.000000000000     2.475234000000     0.000000000000     1.007825032070
         H            2.143616000000     1.237617000000     0.000000000000     1.007825032070
         H            2.143616000000    -1.237617000000     0.000000000000     1.007825032070
         H            0.000000000000    -2.475234000000     0.000000000000     1.007825032070
         H           -2.143616000000    -1.237617000000     0.000000000000     1.007825032070
         H           -2.143616000000     1.237617000000     0.000000000000     1.007825032070

  Running in c1 symmetry.

  Rotational constants: A =      0.19143  B =      0.19143  C =      0.09572 [cm^-1]
  Rotational constants: A =   5739.02343  B =   5739.01967  C =   2869.51077 [MHz]
  Nuclear repulsion =  204.077021099348656

  Charge       = 0
  Multiplicity = 1
  Electrons    = 42
  Nalpha       = 21
  Nbeta        = 21

  ==> Algorithm <==

  SCF Algorithm Type is PK.
  DIIS enabled.
  MOM disabled.
  Fractional occupation disabled.
  Guess Type is SAD.
  Energy threshold   = 1.00e-06
  Density threshold  = 1.00e-10
  Integral threshold = 0.00e+00

  ==> Primary Basis <==

  Basis Set: STO-3G
    Blend: STO-3G
    Number of shells: 24
    Number of basis function: 36
    Number of Cartesian functions: 36
    Spherical Harmonics?: true
    Max angular momentum: 1

  ==> Pre-Iterations <==

   -------------------------------------------------------
    Irrep   Nso     Nmo     Nalpha   Nbeta   Ndocc  Nsocc
   -------------------------------------------------------
     A         36      36       0       0       0       0
   -------------------------------------------------------
    Total      36      36      21      21      21       0
   -------------------------------------------------------

  ==> Integral Setup <==

  Using in-core PK algorithm.
   Calculation information:
      Number of atoms:                  12
      Number of AO shells:              24
      Number of primitives:             72
      Number of atomic orbitals:        36
      Number of basis functions:        36

      Integral cutoff                 1.00e-12
      Number of threads:                 1

  Performing in-core PK
  Using 444222 doubles for integral storage.
  We computed 42486 shell quartets total.
  Whereas there are 45150 unique shell quartets.

  ==> DiskJK: Disk-Based J/K Matrices <==

    J tasked:                  Yes
    K tasked:                  Yes
    wK tasked:                  No
    Memory (MB):               375
    Schwarz Cutoff:          1E-12

    OpenMP threads:              1

  Minimum eigenvalue in the overlap matrix is 1.6882920578E-01.
  Using Symmetric Orthogonalization.

  SCF Guess: Superposition of Atomic Densities via on-the-fly atomic UHF.

  ==> Iterations <==

                        Total Energy        Delta E     RMS |[F,P]|

   @RHF iter   0:  -227.81707249348699   -2.27817e+02   9.82851e-02 
   @RHF iter   1:  -227.76229457543545    5.47779e-02   1.05290e-02 
   @RHF iter   2:  -227.88242405209854   -1.20129e-01   2.78780e-03 DIIS
   @RHF iter   3:  -227.89087494235065   -8.45089e-03   6.83476e-04 DIIS
   @RHF iter   4:  -227.89125016015802   -3.75218e-04   6.71109e-05 DIIS
   @RHF iter   5:  -227.89125389414755   -3.73399e-06   9.19930e-06 DIIS
   @RHF iter   6:  -227.89125401888194   -1.24734e-07   2.13968e-06 DIIS
   @RHF iter   7:  -227.89125402703797   -8.15604e-09   5.91739e-07 DIIS
   @RHF iter   8:  -227.89125402762659   -5.88614e-10   4.39275e-08 DIIS
   @RHF iter   9:  -227.89125402762861   -2.01794e-12   3.88633e-09 DIIS
   @RHF iter  10:  -227.89125402762994   -1.33582e-12   4.02875e-10 DIIS
   @RHF iter  11:  -227.89125402763062   -6.82121e-13   3.62921e-11 DIIS

  ==> Post-Iterations <==

    Orbital Energies [Eh]
    ---------------------

    Doubly Occupied:                                                      

       1A    -11.029219     2A    -11.029219     3A    -11.029203  
       4A    -11.028834     5A    -11.028834     6A    -11.028676  
       7A     -1.093407     8A     -0.956555     9A     -0.956555  
      10A     -0.767676    11A     -0.767676    12A     -0.663690  
      13A     -0.592995    14A     -0.555650    15A     -0.534819  
      16A     -0.534819    17A     -0.459063    18A     -0.433032  
      19A     -0.433032    20A     -0.281537    21A     -0.281537  

    Virtual:                                                              

      22A      0.270080    23A      0.270081    24A      0.507159  
      25A      0.577151    26A      0.647784    27A      0.647785  
      28A      0.724036    29A      0.739052    30A      0.739053  
      31A      0.886660    32A      0.886661    33A      0.902363  
      34A      0.902363    35A      1.094836    36A      1.158012  

    Final Occupation by Irrep:
              A 
    DOCC [    21 ]

  Energy converged.

  @RHF Final Energy:  -227.89125402763062

   => Energetics <=

    Nuclear Repulsion Energy =            204.0770210993486558
    One-Electron Energy =                -712.9644967008534877
    Two-Electron Energy =                 280.9962215738742088
    Total Energy =                       -227.8912540276306231



Properties will be evaluated at   0.000000,   0.000000,   0.000000 [a0]

Properties computed using the SCF density matrix

  Nuclear Dipole Moment: [e a0]
     X:     0.0000      Y:     0.0000      Z:     0.0000

  Electronic Dipole Moment: [e a0]
     X:    -0.0000      Y:    -0.0000      Z:     0.0000

  Dipole Moment: [e a0]
     X:    -0.0000      Y:    -0.0000      Z:     0.0000     Total:     0.0000

  Dipole Moment: [D]
     X:    -0.0000      Y:    -0.0000      Z:     0.0000     Total:     0.0000


*** tstop() called on ed10 at Thu Jun 14 17:08:24 2018
Module time:
	user time   =       1.57 seconds =       0.03 minutes
	system time =       0.01 seconds =       0.00 minutes
	total time  =          1 seconds =       0.02 minutes
Total time:
	user time   =       1.57 seconds =       0.03 minutes
	system time =       0.01 seconds =       0.00 minutes
	total time  =          1 seconds =       0.02 minutes

*** tstart() called on ed10
*** at Thu Jun 14 17:08:24 2018

   => Loading Basis Set <=

    Name: STO-3G
    Role: ORBITAL
    Keyword: BASIS
    atoms 1-6  entry C          line    61 file /edfs/users/rainli/Software/psi4_20180521/psi4/install/share/psi4/basis/sto-3g.gbs 
    atoms 7-12 entry H          line    19 file /edfs/users/rainli/Software/psi4_20180521/psi4/install/share/psi4/basis/sto-3g.gbs 


         ---------------------------------------------------------
                                   SCF
            by Justin Turney, Rob Parrish, Andy Simmonett
                             and Daniel Smith
                              RHF Reference
                        1 Threads,    500 MiB Core
         ---------------------------------------------------------

  ==> Geometry <==

    Molecular point group: c1
    Full point group: D2h

    Geometry (in Angstrom), charge = 0, multiplicity = 1:

       Center              X                  Y                   Z               Mass       
    ------------   -----------------  -----------------  -----------------  -----------------
         C           -0.000000000000     1.389804000000     0.000000000000    12.000000000000
         C            1.203605000000     0.694902000000     0.000000000000    12.000000000000
         C            1.203605000000    -0.694902000000     0.000000000000    12.000000000000
         C           -0.000000000000    -1.389804000000     0.000000000000    12.000000000000
         C           -1.203605000000    -0.694902000000     0.000000000000    12.000000000000
         C           -1.203605000000     0.694902000000     0.000000000000    12.000000000000
         H           -0.000000000000     2.475234000000     0.000000000000     1.007825032070
         H            2.143616000000     1.237617000000     0.000000000000     1.007825032070
         H            2.143616000000    -1.237617000000     0.000000000000     1.007825032070
         H           -0.000000000000    -2.475234000000     0.000000000000     1.007825032070
         H           -2.143616000000    -1.237617000000     0.000000000000     1.007825032070
         H           -2.143616000000     1.237617000000     0.000000000000     1.007825032070

  Running in c1 symmetry.

  Rotational constants: A =      0.19143  B =      0.19143  C =      0.09572 [cm^-1]
  Rotational constants: A =   5739.02343  B =   5739.01967  C =   2869.51077 [MHz]
  Nuclear repulsion =  204.077021099348656

  Charge       = 0
  Multiplicity = 1
  Electrons    = 42
  Nalpha       = 21
  Nbeta        = 21

  ==> Algorithm <==

  SCF Algorithm Type is PK.
  DIIS enabled.
  MOM disabled.
  Fractional occupation disabled.
  Guess Type is SAD.
  Energy threshold   = 1.00e-08
  Density threshold  = 1.00e-10
  Integral threshold = 0.00e+00

  ==> Primary Basis <==

  Basis Set: STO-3G
    Blend: STO-3G
    Number of shells: 24
    Number of basis function: 36
    Number of Cartesian functions: 36
    Spherical Harmonics?: true
    Max angular momentum: 1

  ==> Pre-Iterations <==

   -------------------------------------------------------
    Irrep   Nso     Nmo     Nalpha   Nbeta   Ndocc  Nsocc
   -------------------------------------------------------
     A         36      36       0       0       0       0
   -------------------------------------------------------
    Total      36      36      21      21      21       0
   -------------------------------------------------------

  ==> Integral Setup <==

  Using in-core PK algorithm.
   Calculation information:
      Number of atoms:                  12
      Number of AO shells:              24
      Number of primitives:             72
      Number of atomic orbitals:        36
      Number of basis functions:        36

      Integral cutoff                 1.00e-12
      Number of threads:                 1

  Performing in-core PK
  Using 444222 doubles for integral storage.
  We computed 42486 shell quartets total.
  Whereas there are 45150 unique shell quartets.

  ==> DiskJK: Disk-Based J/K Matrices <==

    J tasked:                  Yes
    K tasked:                  Yes
    wK tasked:                  No
    Memory (MB):               375
    Schwarz Cutoff:          1E-12

    OpenMP threads:              1

  Minimum eigenvalue in the overlap matrix is 1.6882920578E-01.
  Using Symmetric Orthogonalization.

  SCF Guess: Superposition of Atomic Densities via on-the-fly atomic UHF.

  ==> Iterations <==

                        Total Energy        Delta E     RMS |[F,P]|

   @RHF iter   0:  -227.81707249348699   -2.27817e+02   9.82851e-02 
   @RHF iter   1:  -227.76229457543536    5.47779e-02   1.05290e-02 
   @RHF iter   2:  -227.88242405209874   -1.20129e-01   2.78780e-03 DIIS
   @RHF iter   3:  -227.89087494235017   -8.45089e-03   6.83476e-04 DIIS
   @RHF iter   4:  -227.89125016015754   -3.75218e-04   6.71109e-05 DIIS
   @RHF iter   5:  -227.89125389414710   -3.73399e-06   9.19930e-06 DIIS
   @RHF iter   6:  -227.89125401888231   -1.24735e-07   2.13968e-06 DIIS
   @RHF iter   7:  -227.89125402703797   -8.15567e-09   5.91739e-07 DIIS
   @RHF iter   8:  -227.89125402762636   -5.88386e-10   4.39275e-08 DIIS
   @RHF iter   9:  -227.89125402762920   -2.84217e-12   3.88633e-09 DIIS
   @RHF iter  10:  -227.89125402763023   -1.02318e-12   4.02874e-10 DIIS
   @RHF iter  11:  -227.89125402762983    3.97904e-13   3.62921e-11 DIIS

  ==> Post-Iterations <==

    Orbital Energies [Eh]
    ---------------------

    Doubly Occupied:                                                      

       1A    -11.029219     2A    -11.029219     3A    -11.029203  
       4A    -11.028834     5A    -11.028834     6A    -11.028676  
       7A     -1.093407     8A     -0.956555     9A     -0.956555  
      10A     -0.767676    11A     -0.767676    12A     -0.663690  
      13A     -0.592995    14A     -0.555650    15A     -0.534819  
      16A     -0.534819    17A     -0.459063    18A     -0.433032  
      19A     -0.433032    20A     -0.281537    21A     -0.281537  

    Virtual:                                                              

      22A      0.270080    23A      0.270081    24A      0.507159  
      25A      0.577151    26A      0.647784    27A      0.647785  
      28A      0.724036    29A      0.739052    30A      0.739053  
      31A      0.886660    32A      0.886661    33A      0.902363  
      34A      0.902363    35A      1.094836    36A      1.158012  

    Final Occupation by Irrep:
              A 
    DOCC [    21 ]

  Energy converged.

  @RHF Final Energy:  -227.89125402762983

   => Energetics <=

    Nuclear Repulsion Energy =            204.0770210993486558
    One-Electron Energy =                -712.9644967008534877
    Two-Electron Energy =                 280.9962215738750047
    Total Energy =                       -227.8912540276298273



Properties will be evaluated at   0.000000,   0.000000,   0.000000 [a0]

Properties computed using the SCF density matrix

  Nuclear Dipole Moment: [e a0]
     X:     0.0000      Y:     0.0000      Z:     0.0000

  Electronic Dipole Moment: [e a0]
     X:     0.0000      Y:    -0.0000      Z:    -0.0000

  Dipole Moment: [e a0]
     X:     0.0000      Y:    -0.0000      Z:    -0.0000     Total:     0.0000

  Dipole Moment: [D]
     X:     0.0000      Y:    -0.0000      Z:    -0.0000     Total:     0.0000


*** tstop() called on ed10 at Thu Jun 14 17:08:26 2018
Module time:
	user time   =       1.59 seconds =       0.03 minutes
	system time =       0.01 seconds =       0.00 minutes
	total time  =          2 seconds =       0.03 minutes
Total time:
	user time   =       3.17 seconds =       0.05 minutes
	system time =       0.02 seconds =       0.00 minutes
	total time  =          3 seconds =       0.05 minutes
 MINTS: Wrapper to libmints.
   by Justin Turney

   Calculation information:
      Number of threads:                 1
      Number of atoms:                  12
      Number of AO shells:              24
      Number of SO shells:              24
      Number of primitives:             72
      Number of atomic orbitals:        36
      Number of basis functions:        36

      Number of irreps:                  1
      Integral cutoff                 0.00e+00
      Number of functions per irrep: [  36 ]

 OEINTS: Overlap, kinetic, potential, dipole, and quadrupole integrals
         stored in file 35.

      Computing two-electron integrals...done
      Computed 134439 non-zero two-electron integrals.
        Stored in file 33.


Reading options from the V2RDM_CASSCF block
Calling plugin v2rdm_casscf.so.



*** tstart() called on ed10
*** at Thu Jun 14 17:08:27 2018



        ****************************************************
        *                                                  *
        *    v2RDM-CASSCF                                  *
        *                                                  *
        *    A variational 2-RDM-driven approach to the    *
        *    active space self-consistent field method     *
        *                                                  *
        ****************************************************


        The following papers should be cited when using v2RDM-CASSCF:

        J. Fosso-Tande, D. R. Nascimento, and A. E. DePrince III,
        Mol. Phys. 114, 423-430 (2015).

            URL: http://dx.doi.org/10.1080/00268976.2015.1078008

        J. Fosso-Tande, T.-S. Nguyen, G. Gidofalvi, and
        A. E. DePrince III, J. Chem. Theory Comput. accepted (2016).

            URL: http://dx.doi.org/10.1021/acs.jctc.6b00190



  ==> Convergence parameters <==

        r_convergence:                      1.000e-05
        e_convergence:                      1.000e-06
        cg_convergence:                     1.000e-09
        maxiter:                                20000
        cg_maxiter:                             10000

  ==> Active space details <==

        Number of frozen core orbitals:             0
        Number of restricted occupied orbitals:    18
        Number of active occupied orbitals:         3
        Number of active virtual orbitals:          3
        Number of restricted virtual orbitals:     12
        Number of frozen virtual orbitals:          0

        Irrep:              A 
 
        frozen_docc     [   0 ]
        restricted_docc [  18 ]
        active          [   6 ]
        restricted_uocc [  12 ]
        frozen_uocc     [   0 ]

  ==> Orbital optimization parameters <==

        1-step algorithm:                    true
        g_convergence:                  1.000e-06
        e_convergence:                  1.000e-08
        maximum iterations:                    20
        frequency:                            500
        active-active rotations:            false
        exact diagonal Hessian:             false
        number of DIIS vectors:                 0
        print iteration info:               false

  ==> Memory requirements <==

        D2:                          0.01 mb
        Q2:                          0.01 mb

        Total number of variables:           4932
        Total number of constraints:         3973
        Total memory requirements:        2.35 mb

    ==> Transform two-electron integrals <==

	Presorting SO-basis two-electron integrals.
	Sorting File: SO Ints (nn|nn) nbuckets = 1
	Transforming the one-electron integrals and constructing Fock matrices
	Starting first half-transformation.
	Sorting half-transformed integrals.
	First half integral transformation complete.
	Starting second half-transformation.
	Two-electron integral transformation complete.

        Time for integral transformation:     0.30 s

    Molecular point group: c1
    Full point group: D2h

    Geometry (in Angstrom), charge = 0, multiplicity = 1:

       Center              X                  Y                   Z               Mass       
    ------------   -----------------  -----------------  -----------------  -----------------
         C           -0.000000000000     1.389804000000     0.000000000000    12.000000000000
         C            1.203605000000     0.694902000000     0.000000000000    12.000000000000
         C            1.203605000000    -0.694902000000     0.000000000000    12.000000000000
         C           -0.000000000000    -1.389804000000     0.000000000000    12.000000000000
         C           -1.203605000000    -0.694902000000     0.000000000000    12.000000000000
         C           -1.203605000000     0.694902000000     0.000000000000    12.000000000000
         H           -0.000000000000     2.475234000000     0.000000000000     1.007825032070
         H            2.143616000000     1.237617000000     0.000000000000     1.007825032070
         H            2.143616000000    -1.237617000000     0.000000000000     1.007825032070
         H           -0.000000000000    -2.475234000000     0.000000000000     1.007825032070
         H           -2.143616000000    -1.237617000000     0.000000000000     1.007825032070
         H           -2.143616000000     1.237617000000     0.000000000000     1.007825032070

  -AO BASIS SET INFORMATION:
    Name                   = STO-3G
    Blend                  = STO-3G
    Total number of shells = 24
    Number of primitives   = 72
    Number of AO           = 36
    Number of SO           = 36
    Maximum AM             = 1
    Spherical Harmonics    = TRUE

  -Contraction Scheme:
    Atom   Type   All Primitives // Shells:
   ------ ------ --------------------------
       1     C     6s 3p // 2s 1p 
       2     C     6s 3p // 2s 1p 
       3     C     6s 3p // 2s 1p 
       4     C     6s 3p // 2s 1p 
       5     C     6s 3p // 2s 1p 
       6     C     6s 3p // 2s 1p 
       7     H     3s // 1s 
       8     H     3s // 1s 
       9     H     3s // 1s 
      10     H     3s // 1s 
      11     H     3s // 1s 
      12     H     3s // 1s 

  ==> AO Basis Functions <==

    [ STO-3G ]
    spherical
    ****
    C   1
    S   3 1.00
                        71.61683700           0.15432897
                        13.04509600           0.53532814
                         3.53051220           0.44463454
    S   3 1.00
                         2.94124940          -0.09996723
                         0.68348310           0.39951283
                         0.22228990           0.70011547
    P   3 1.00
                         2.94124940           0.15591627
                         0.68348310           0.60768372
                         0.22228990           0.39195739
    ****
    C   2
    S   3 1.00
                        71.61683700           0.15432897
                        13.04509600           0.53532814
                         3.53051220           0.44463454
    S   3 1.00
                         2.94124940          -0.09996723
                         0.68348310           0.39951283
                         0.22228990           0.70011547
    P   3 1.00
                         2.94124940           0.15591627
                         0.68348310           0.60768372
                         0.22228990           0.39195739
    ****
    C   3
    S   3 1.00
                        71.61683700           0.15432897
                        13.04509600           0.53532814
                         3.53051220           0.44463454
    S   3 1.00
                         2.94124940          -0.09996723
                         0.68348310           0.39951283
                         0.22228990           0.70011547
    P   3 1.00
                         2.94124940           0.15591627
                         0.68348310           0.60768372
                         0.22228990           0.39195739
    ****
    C   4
    S   3 1.00
                        71.61683700           0.15432897
                        13.04509600           0.53532814
                         3.53051220           0.44463454
    S   3 1.00
                         2.94124940          -0.09996723
                         0.68348310           0.39951283
                         0.22228990           0.70011547
    P   3 1.00
                         2.94124940           0.15591627
                         0.68348310           0.60768372
                         0.22228990           0.39195739
    ****
    C   5
    S   3 1.00
                        71.61683700           0.15432897
                        13.04509600           0.53532814
                         3.53051220           0.44463454
    S   3 1.00
                         2.94124940          -0.09996723
                         0.68348310           0.39951283
                         0.22228990           0.70011547
    P   3 1.00
                         2.94124940           0.15591627
                         0.68348310           0.60768372
                         0.22228990           0.39195739
    ****
    C   6
    S   3 1.00
                        71.61683700           0.15432897
                        13.04509600           0.53532814
                         3.53051220           0.44463454
    S   3 1.00
                         2.94124940          -0.09996723
                         0.68348310           0.39951283
                         0.22228990           0.70011547
    P   3 1.00
                         2.94124940           0.15591627
                         0.68348310           0.60768372
                         0.22228990           0.39195739
    ****
    H   7
    S   3 1.00
                         3.42525091           0.15432897
                         0.62391373           0.53532814
                         0.16885540           0.44463454
    ****
    H   8
    S   3 1.00
                         3.42525091           0.15432897
                         0.62391373           0.53532814
                         0.16885540           0.44463454
    ****
    H   9
    S   3 1.00
                         3.42525091           0.15432897
                         0.62391373           0.53532814
                         0.16885540           0.44463454
    ****
    H  10
    S   3 1.00
                         3.42525091           0.15432897
                         0.62391373           0.53532814
                         0.16885540           0.44463454
    ****
    H  11
    S   3 1.00
                         3.42525091           0.15432897
                         0.62391373           0.53532814
                         0.16885540           0.44463454
    ****
    H  12
    S   3 1.00
                         3.42525091           0.15432897
                         0.62391373           0.53532814
                         0.16885540           0.44463454
    ****


        Read integrals......done.


    reference energy:        -227.891254027630
    frozen core energy:      -425.567881696744
    initial 2-RDM energy:    -225.463643727025

      oiter iiter        E(p)        E(d)      E gap)      mu     eps(p)     eps(d)
          0    47 -205.329478  -41.437969 1.638915e+02   1.000 1.98456e+02 1.43251e+02
          1    28 -223.490253 -590.170147 3.666799e+02   1.000 1.33312e+01 9.06576e+01
          2    29 -222.779466 -373.583818 1.508044e+02   1.000 1.22573e+01 3.36639e+00
          3    27 -229.860260 -354.944327 1.250841e+02   1.000 1.15881e+01 2.80982e+00
          4    28 -229.845832 -344.011986 1.141662e+02   1.000 1.06699e+01 2.40000e+00
          5    28 -229.666866 -330.411748 1.007449e+02   1.000 1.02197e+01 1.64692e+00
          6    28 -229.476827 -318.714087 8.923726e+01   1.000 9.28807e+00 1.09542e+00
          7    28 -229.131962 -307.921993 7.879003e+01   1.000 8.29742e+00 1.02528e+00
          8    28 -228.859561 -298.587244 6.972768e+01   1.000 7.32914e+00 8.61710e-01
          9    28 -228.564168 -289.656880 6.109271e+01   1.000 6.44399e+00 8.67541e-01
         10    28 -228.281523 -281.781821 5.350030e+01   1.000 5.58128e+00 8.06451e-01
         11    28 -228.217509 -274.722139 4.650463e+01   1.000 5.34448e+00 6.95284e-01
         12    28 -228.113804 -267.818324 3.970452e+01   1.000 4.86373e+00 5.96300e-01
         13    28 -227.865460 -261.342178 3.347672e+01   1.000 4.01246e+00 7.66290e-01
         14    28 -227.849757 -255.884984 2.803523e+01   1.000 3.73048e+00 7.40068e-01
         15    28 -227.639481 -250.801666 2.316219e+01   1.000 3.00293e+00 1.05301e+00
         16    28 -227.442982 -247.774790 2.033181e+01   1.000 2.39513e+00 7.71846e-01
         17    28 -227.420839 -244.132883 1.671204e+01   1.000 2.16616e+00 6.50389e-01
         18    28 -227.402936 -241.399341 1.399640e+01   1.000 1.96951e+00 6.12212e-01
         19    28 -227.363278 -238.358016 1.099474e+01   1.000 1.80039e+00 5.63507e-01
         20    28 -227.337840 -235.840998 8.503159e+00   1.000 1.69005e+00 4.45813e-01
         21    28 -227.367244 -233.419134 6.051890e+00   1.000 1.69374e+00 4.53732e-01
         22    28 -227.398615 -231.448646 4.050032e+00   1.000 1.61220e+00 4.67063e-01
         23    28 -227.338377 -229.583905 2.245528e+00   1.000 1.32794e+00 5.49689e-01
         24    28 -227.360523 -228.193264 8.327401e-01   1.000 1.10920e+00 5.94672e-01
         25    28 -227.289431 -227.218767 7.066431e-02   1.000 7.13010e-01 8.30884e-01
         26    22 -227.333368 -227.257656 7.571164e-02   1.000 4.65282e-01 6.33924e-01
         27    24 -227.419352 -227.281456 1.378959e-01   1.000 3.09649e-01 3.90157e-01
         28    24 -227.482175 -227.414600 6.757465e-02   1.000 2.35481e-01 2.89321e-01
         29    24 -227.537193 -227.426884 1.103089e-01   1.000 1.65064e-01 2.30994e-01
         30    24 -227.573274 -227.467725 1.055491e-01   1.000 1.25409e-01 1.97109e-01
         31    23 -227.598589 -227.461632 1.369572e-01   1.000 1.00184e-01 1.72654e-01
         32    23 -227.616219 -227.501283 1.149361e-01   1.000 1.16288e-01 1.55545e-01
         33    21 -227.639825 -227.540271 9.955365e-02   1.000 1.02291e-01 1.42760e-01
         34    22 -227.665551 -227.566327 9.922401e-02   1.000 6.49671e-02 1.38087e-01
         35    22 -227.682306 -227.583566 9.873945e-02   1.000 3.77124e-02 1.34197e-01
         36    23 -227.701144 -227.585229 1.159152e-01   1.000 4.44753e-02 1.28239e-01
         37    21 -227.712618 -227.582584 1.300341e-01   1.000 4.39661e-02 1.23161e-01
         38    22 -227.724217 -227.578018 1.461997e-01   1.000 3.32954e-02 1.19345e-01
         39    22 -227.734039 -227.575356 1.586825e-01   1.000 2.59066e-02 1.16441e-01
         40    23 -227.745366 -227.576746 1.686202e-01   1.000 2.65190e-02 1.13889e-01
         41    23 -227.757800 -227.584888 1.729116e-01   1.000 2.83816e-02 1.11115e-01
         42    23 -227.770899 -227.596039 1.748596e-01   1.000 2.65412e-02 1.08283e-01
         43    21 -227.783778 -227.607747 1.760306e-01   1.000 2.28474e-02 1.05962e-01
         44    23 -227.795581 -227.618665 1.769158e-01   1.000 1.96209e-02 1.04108e-01
         45    22 -227.806015 -227.628939 1.770756e-01   1.000 1.77043e-02 1.02395e-01
         46    24 -227.812336 -227.641138 1.711976e-01   1.000 2.80445e-02 9.89716e-02
         47    21 -227.819361 -227.670846 1.485150e-01   1.000 3.00405e-02 9.57576e-02
         48    21 -227.826361 -227.689101 1.372604e-01   1.000 2.79405e-02 9.33206e-02
         49    21 -227.832887 -227.696223 1.366640e-01   1.000 3.11304e-02 8.96656e-02
         50    22 -227.840752 -227.708385 1.323673e-01   1.000 2.95295e-02 8.63585e-02
         51    22 -227.848777 -227.717200 1.315764e-01   1.000 2.67607e-02 8.40414e-02
         52    22 -227.855810 -227.725111 1.306982e-01   1.000 2.43170e-02 8.19105e-02
         53    21 -227.863076 -227.734549 1.285266e-01   1.000 2.14546e-02 7.99680e-02
         54    22 -227.870066 -227.740097 1.299687e-01   1.000 1.92769e-02 7.81575e-02
         55    24 -227.876240 -227.744618 1.316216e-01   1.000 1.80171e-02 7.62810e-02
         56    24 -227.881457 -227.752750 1.287074e-01   1.000 1.76641e-02 7.42883e-02
         57    24 -227.886689 -227.763409 1.232793e-01   1.000 1.63606e-02 7.26053e-02
         58    23 -227.891654 -227.770529 1.211255e-01   1.000 1.53214e-02 7.10964e-02
         59    23 -227.896578 -227.776750 1.198278e-01   1.000 1.52664e-02 6.96122e-02
         60    23 -227.901476 -227.784746 1.167304e-01   1.000 1.57796e-02 6.80471e-02
         61    24 -227.906249 -227.790314 1.159354e-01   1.000 1.62004e-02 6.66338e-02
         62    23 -227.910296 -227.794622 1.156735e-01   1.000 1.59449e-02 6.53538e-02
         63    22 -227.914567 -227.797956 1.166116e-01   1.000 1.59303e-02 6.41577e-02
         64    24 -227.918276 -227.800623 1.176535e-01   1.000 1.53382e-02 6.30642e-02
         65    21 -227.921930 -227.803173 1.187567e-01   1.000 1.45022e-02 6.21064e-02
         66    21 -227.925294 -227.805864 1.194307e-01   1.000 1.32884e-02 6.12823e-02
         67    21 -227.928603 -227.809060 1.195426e-01   1.000 1.19472e-02 6.05545e-02
         68    23 -227.931804 -227.812769 1.190350e-01   1.000 1.06827e-02 5.98566e-02
         69    23 -227.934960 -227.818064 1.168954e-01   1.000 1.00514e-02 5.91183e-02
         70    23 -227.938307 -227.823677 1.146296e-01   1.000 1.02769e-02 5.83650e-02
         71    23 -227.941353 -227.827692 1.136609e-01   1.000 1.07737e-02 5.75531e-02
         72    24 -227.944100 -227.830785 1.133148e-01   1.000 1.09607e-02 5.66439e-02
         73    24 -227.946792 -227.834743 1.120492e-01   1.000 1.09911e-02 5.57384e-02
         74    24 -227.949458 -227.837187 1.122715e-01   1.000 1.04846e-02 5.51132e-02
         75    24 -227.951991 -227.838483 1.135072e-01   1.000 9.59566e-03 5.46282e-02
         76    24 -227.954181 -227.838859 1.153222e-01   1.000 9.08321e-03 5.41318e-02
         77    24 -227.956514 -227.839123 1.173902e-01   1.000 9.63444e-03 5.34473e-02
         78    24 -227.959225 -227.840934 1.182910e-01   1.000 9.92069e-03 5.25795e-02
         79    23 -227.962107 -227.841466 1.206408e-01   1.000 9.43521e-03 5.20078e-02
         80    23 -227.965050 -227.841243 1.238070e-01   1.000 8.37376e-03 5.17182e-02
         81    23 -227.967883 -227.841047 1.268358e-01   1.000 7.22704e-03 5.15297e-02
         82    23 -227.970632 -227.841804 1.288282e-01   1.000 6.51489e-03 5.12826e-02
         83    23 -227.973338 -227.844495 1.288431e-01   1.000 6.73741e-03 5.08430e-02
         84    23 -227.975769 -227.846014 1.297546e-01   1.000 7.14913e-03 5.03882e-02
         85    21 -227.978095 -227.848876 1.292195e-01   1.000 7.53467e-03 4.99644e-02
         86    21 -227.980365 -227.851171 1.291942e-01   1.000 7.74856e-03 4.95789e-02
         87    21 -227.982643 -227.853650 1.289923e-01   1.000 7.87883e-03 4.91897e-02
         88    21 -227.984910 -227.855722 1.291880e-01   1.000 8.00439e-03 4.87611e-02
         89    21 -227.987210 -227.857869 1.293404e-01   1.000 8.22419e-03 4.82858e-02
         90    23 -227.989447 -227.860127 1.293201e-01   1.000 8.52965e-03 4.77800e-02
         91    22 -227.991787 -227.862898 1.288889e-01   1.000 8.72437e-03 4.72639e-02
         92    24 -227.993875 -227.865983 1.278921e-01   1.000 8.76881e-03 4.67487e-02
         93    24 -227.996012 -227.869921 1.260911e-01   1.000 8.65341e-03 4.62234e-02
         94    24 -227.997584 -227.873771 1.238128e-01   1.000 9.75107e-03 4.55774e-02
         95    21 -227.999227 -227.878932 1.202946e-01   1.000 1.08874e-02 4.46583e-02
         96    24 -228.000891 -227.887725 1.131654e-01   1.000 1.29539e-02 4.32820e-02
         97    24 -228.001860 -227.895863 1.059974e-01   1.000 1.66511e-02 4.03552e-02
         98    21 -228.003753 -227.913055 9.069784e-02   1.000 1.45704e-02 3.91057e-02
         99    22 -228.005511 -227.923835 8.167598e-02   1.000 1.23235e-02 3.78566e-02
        100    24 -228.006577 -227.930059 7.651808e-02   1.000 1.20103e-02 3.64538e-02
        101    23 -228.007198 -227.933939 7.325840e-02   1.000 1.33270e-02 3.53363e-02
        102    24 -228.007876 -227.935823 7.205323e-02   1.000 1.42857e-02 3.44881e-02
        103    21 -228.008883 -227.937286 7.159700e-02   1.000 1.35343e-02 3.37879e-02
        104    22 -228.010260 -227.940085 7.017469e-02   1.000 1.15255e-02 3.30345e-02
        105    22 -228.011486 -227.941474 7.001160e-02   1.000 9.95047e-03 3.22890e-02
        106    23 -228.012837 -227.943094 6.974367e-02   1.000 8.53351e-03 3.15910e-02
        107    22 -228.014011 -227.943807 7.020420e-02   1.000 7.61624e-03 3.09570e-02
        108    23 -228.015167 -227.944909 7.025764e-02   1.000 7.03563e-03 3.03691e-02
        109    22 -228.015803 -227.946219 6.958415e-02   1.000 7.45604e-03 2.97892e-02
        110    23 -228.016511 -227.949093 6.741855e-02   1.000 8.01424e-03 2.92794e-02
        111    23 -228.017361 -227.952003 6.535889e-02   1.000 7.75400e-03 2.88942e-02
        112    23 -228.018331 -227.954395 6.393601e-02   1.000 6.76546e-03 2.86361e-02
        113    21 -228.019309 -227.956183 6.312693e-02   1.000 5.60698e-03 2.84446e-02
        114    23 -228.020263 -227.957691 6.257157e-02   1.000 4.72573e-03 2.82717e-02
        115    24 -228.021093 -227.958174 6.291931e-02   1.000 4.34334e-03 2.80863e-02
        116    24 -228.021856 -227.958566 6.328938e-02   1.000 4.22820e-03 2.78718e-02
        117    24 -228.022491 -227.958426 6.406562e-02   1.000 4.08061e-03 2.76531e-02
        118    24 -228.023131 -227.958228 6.490301e-02   1.000 3.84175e-03 2.74395e-02
        119    24 -228.023787 -227.958280 6.550734e-02   1.000 3.48379e-03 2.72292e-02
        120    23 -228.024522 -227.958848 6.567420e-02   1.000 3.11005e-03 2.70182e-02
        121    22 -228.025284 -227.959941 6.534314e-02   1.000 2.83556e-03 2.68034e-02
        122    23 -228.026056 -227.960967 6.508930e-02   1.000 2.73376e-03 2.65867e-02
        123    23 -228.026796 -227.961856 6.493925e-02   1.000 2.75510e-03 2.63753e-02
        124    23 -228.027487 -227.962552 6.493525e-02   1.000 2.80044e-03 2.61743e-02
        125    22 -228.028156 -227.963099 6.505655e-02   1.000 2.83823e-03 2.59855e-02
        126    23 -228.028778 -227.963535 6.524294e-02   1.000 2.89190e-03 2.58080e-02
        127    23 -228.029401 -227.963879 6.552212e-02   1.000 2.98645e-03 2.56404e-02
        128    23 -228.030005 -227.964178 6.582685e-02   1.000 3.10703e-03 2.54818e-02
        129    23 -228.030632 -227.964465 6.616608e-02   1.000 3.21735e-03 2.53311e-02
        130    21 -228.031263 -227.964797 6.646569e-02   1.000 3.27578e-03 2.51869e-02
        131    24 -228.031907 -227.965190 6.671693e-02   1.000 3.25275e-03 2.50470e-02
        132    24 -228.032564 -227.965664 6.690001e-02   1.000 3.15399e-03 2.49087e-02
        133    24 -228.033226 -227.966208 6.701802e-02   1.000 2.99771e-03 2.47683e-02
        134    24 -228.033888 -227.966815 6.707302e-02   1.000 2.83056e-03 2.46224e-02
        135    24 -228.034538 -227.967466 6.707206e-02   1.000 2.69209e-03 2.44678e-02
        136    24 -228.035176 -227.968144 6.703185e-02   1.000 2.62154e-03 2.43018e-02
        137    24 -228.035787 -227.968832 6.695472e-02   1.000 2.63257e-03 2.41224e-02
        138    24 -228.036379 -227.969515 6.686423e-02   1.000 2.73842e-03 2.39273e-02
        139    24 -228.036949 -227.970276 6.667255e-02   1.000 3.33478e-03 2.36024e-02
        140    24 -228.036437 -227.972443 6.399373e-02   1.000 9.93476e-03 2.25676e-02
        141    24 -228.036035 -227.980467 5.556769e-02   1.000 1.60920e-02 2.09888e-02
        142    21 -228.035929 -227.987534 4.839535e-02   1.000 2.17544e-02 1.97345e-02
        143    21 -228.036233 -227.993140 4.309343e-02   1.000 2.47992e-02 1.84635e-02
        144    22 -228.036603 -227.997346 3.925700e-02   1.000 2.64283e-02 1.72622e-02
        145    24 -228.036955 -228.002336 3.461914e-02   1.000 2.63420e-02 1.64757e-02
        146    21 -228.037487 -228.008510 2.897720e-02   1.000 2.47083e-02 1.60923e-02
        147    23 -228.038212 -228.014570 2.364169e-02   1.000 2.13308e-02 1.59054e-02
        148    22 -228.039142 -228.019133 2.000871e-02   1.000 1.70806e-02 1.57338e-02
        149    21 -228.040054 -228.022138 1.791539e-02   1.000 1.26105e-02 1.54547e-02
        150    22 -228.040900 -228.024158 1.674202e-02   1.000 9.30917e-03 1.49953e-02
        151    21 -228.041547 -228.025034 1.651265e-02   1.000 8.03515e-03 1.43944e-02
        152    22 -228.041574 -228.025203 1.637064e-02   1.000 7.49169e-03 1.38031e-02
        153    21 -228.041704 -228.026259 1.544550e-02   1.000 9.29530e-03 1.31077e-02
        154    21 -228.041663 -228.026353 1.530995e-02   1.000 1.05575e-02 1.25361e-02
        155    18 -228.041622 -228.025901 1.572092e-02   1.000 1.08575e-02 1.20905e-02
        156    18 -228.041491 -228.023904 1.758723e-02   1.000 1.00136e-02 1.17658e-02
        157    19 -228.041219 -228.020927 2.029141e-02   1.000 8.24469e-03 1.14694e-02
        158    20 -228.040619 -228.018300 2.231849e-02   1.000 6.56302e-03 1.09649e-02
        159    22 -228.040145 -228.019098 2.104697e-02   1.000 5.89076e-03 1.02582e-02
        160    22 -228.039930 -228.021337 1.859298e-02   1.000 5.78343e-03 9.51371e-03
        161    22 -228.039913 -228.023706 1.620688e-02   1.000 5.81053e-03 8.87459e-03
        162    22 -228.039983 -228.025823 1.415948e-02   1.000 5.84648e-03 8.41420e-03
        163    22 -228.040132 -228.027491 1.264141e-02   1.000 5.79380e-03 8.09381e-03
        164    22 -228.040271 -228.028902 1.136851e-02   1.000 5.47022e-03 7.87495e-03
        165    22 -228.040474 -228.030122 1.035183e-02   1.000 4.74507e-03 7.70388e-03
        166    22 -228.040738 -228.031111 9.626974e-03   1.000 3.78623e-03 7.51699e-03
        167    22 -228.041066 -228.031665 9.401176e-03   1.000 3.05148e-03 7.28435e-03
        168    22 -228.041399 -228.031640 9.759052e-03   1.000 3.03397e-03 7.01305e-03
        169    22 -228.041694 -228.031044 1.064981e-02   1.000 3.50575e-03 6.72701e-03
        170    22 -228.041823 -228.030128 1.169436e-02   1.000 3.55709e-03 6.45865e-03
        171    22 -228.041944 -228.029493 1.245101e-02   1.000 3.68994e-03 6.20530e-03
        172    22 -228.041917 -228.028944 1.297257e-02   1.000 3.20937e-03 5.98755e-03
        173    22 -228.041797 -228.029353 1.244344e-02   1.000 2.64668e-03 5.80265e-03
        174    22 -228.041663 -228.030511 1.115267e-02   1.000 2.19982e-03 5.64071e-03
        175    21 -228.041514 -228.032127 9.386327e-03   1.000 1.92594e-03 5.49699e-03
        176    23 -228.041382 -228.033893 7.488982e-03   1.000 1.78168e-03 5.36558e-03
        177    22 -228.041274 -228.035420 5.853626e-03   1.000 1.62193e-03 5.24177e-03
        178    23 -228.041198 -228.036459 4.738441e-03   1.000 1.44430e-03 5.11799e-03
        179    21 -228.041135 -228.036945 4.190296e-03   1.000 1.27940e-03 4.98618e-03
        180    22 -228.041078 -228.036943 4.134708e-03   1.000 1.18611e-03 4.84307e-03
        181    21 -228.041027 -228.036611 4.415883e-03   1.000 1.16985e-03 4.69296e-03
        182    21 -228.040988 -228.036112 4.875407e-03   1.000 1.20463e-03 4.54564e-03
        183    22 -228.040938 -228.035577 5.360663e-03   1.000 1.29071e-03 4.41179e-03
        184    22 -228.040920 -228.035136 5.784111e-03   1.000 1.39226e-03 4.29959e-03
        185    22 -228.040927 -228.034763 6.164691e-03   1.000 1.48422e-03 4.20911e-03
        186    21 -228.040962 -228.034510 6.452511e-03   1.000 1.54937e-03 4.13402e-03
        187    21 -228.041017 -228.034442 6.575430e-03   1.000 1.57216e-03 4.06586e-03
        188    21 -228.041085 -228.034554 6.530786e-03   1.000 1.54738e-03 3.99665e-03
        189    21 -228.041168 -228.034815 6.352938e-03   1.000 1.47667e-03 3.92236e-03
        190    22 -228.041247 -228.035179 6.068247e-03   1.000 1.38275e-03 3.84313e-03
        191    21 -228.041329 -228.035590 5.738518e-03   1.000 1.28559e-03 3.76190e-03
        192    20 -228.041392 -228.036014 5.378062e-03   1.000 1.21209e-03 3.68230e-03
        193    21 -228.041445 -228.036404 5.040555e-03   1.000 1.17453e-03 3.60719e-03
        194    21 -228.041486 -228.036734 4.752161e-03   1.000 1.17539e-03 3.53802e-03
        195    21 -228.041508 -228.036980 4.527534e-03   1.000 1.19271e-03 3.47478e-03
        196    21 -228.041502 -228.037130 4.372222e-03   1.000 1.16952e-03 3.41690e-03
        197    22 -228.041487 -228.037225 4.261848e-03   1.000 1.13588e-03 3.36234e-03
        198    22 -228.041454 -228.037223 4.231583e-03   1.000 1.07404e-03 3.31000e-03
        199    21 -228.041424 -228.037185 4.239233e-03   1.000 1.02810e-03 3.25760e-03
        200    20 -228.041394 -228.037106 4.287494e-03   1.000 1.00613e-03 3.20472e-03
        201    21 -228.041370 -228.037045 4.324670e-03   1.000 1.01442e-03 3.15179e-03
        202    20 -228.041361 -228.037005 4.355517e-03   1.000 1.03897e-03 3.09947e-03
        203    21 -228.041365 -228.037007 4.358565e-03   1.000 1.06283e-03 3.04753e-03
        204    20 -228.041309 -228.037043 4.266058e-03   1.000 1.24243e-03 2.58481e-03
        205    19 -228.041226 -228.038004 3.221971e-03   1.000 1.90791e-03 1.91382e-03
        206    19 -228.041318 -228.040497 8.213865e-04   1.000 1.84793e-03 1.84351e-03
        207    21 -228.041464 -228.042122 6.576279e-04   1.000 1.57847e-03 1.67245e-03
        208    21 -228.041541 -228.042440 8.986954e-04   1.000 1.44387e-03 1.64123e-03
        209    22 -228.041596 -228.042041 4.444741e-04   1.000 1.42389e-03 1.57842e-03
        210    21 -228.041596 -228.041243 3.534386e-04   1.000 1.36372e-03 1.51619e-03
        211    20 -228.041574 -228.040487 1.087361e-03   1.000 1.23330e-03 1.46971e-03
        212    22 -228.041542 -228.040020 1.521317e-03   1.000 1.08742e-03 1.43443e-03
        213    21 -228.041516 -228.039880 1.635880e-03   1.000 9.63350e-04 1.40843e-03
        214    22 -228.041495 -228.039959 1.535526e-03   1.000 8.60521e-04 1.39292e-03
        215    22 -228.041479 -228.040140 1.339201e-03   1.000 7.90355e-04 1.38072e-03
        216    22 -228.041466 -228.040338 1.127287e-03   1.000 7.68706e-04 1.36046e-03
        217    21 -228.041452 -228.040527 9.245955e-04   1.000 7.84652e-04 1.32868e-03
        218    21 -228.041423 -228.040710 7.131629e-04   1.000 8.47992e-04 1.28993e-03
        219    22 -228.041396 -228.040941 4.549874e-04   1.000 9.04028e-04 1.25422e-03
        220    21 -228.041382 -228.041149 2.325167e-04   1.000 9.07816e-04 1.22826e-03
        221    21 -228.041379 -228.041295 8.316177e-05   1.000 8.61121e-04 1.20865e-03
        222    21 -228.041388 -228.041376 1.207735e-05   1.000 7.81969e-04 1.19214e-03
        223    21 -228.041408 -228.041385 2.287538e-05   1.000 7.01099e-04 1.17707e-03
        224    20 -228.041436 -228.041312 1.239099e-04   1.000 6.51474e-04 1.16242e-03
        225    22 -228.041463 -228.041167 2.965851e-04   1.000 6.48579e-04 1.14789e-03
        226    20 -228.041493 -228.040978 5.145411e-04   1.000 6.77057e-04 1.13363e-03
        227    19 -228.041515 -228.040796 7.192480e-04   1.000 7.08193e-04 1.11971e-03
        228    20 -228.041529 -228.040660 8.689660e-04   1.000 7.23692e-04 1.10579e-03
        229    21 -228.041540 -228.040600 9.398809e-04   1.000 7.21893e-04 1.09155e-03
        230    21 -228.041536 -228.040618 9.178722e-04   1.000 6.70147e-04 1.07775e-03
        231    21 -228.041527 -228.040721 8.059075e-04   1.000 6.23641e-04 1.06498e-03
        232    21 -228.041522 -228.040848 6.735241e-04   1.000 5.81054e-04 1.05347e-03
        233    21 -228.041511 -228.040964 5.464229e-04   1.000 5.50859e-04 1.04346e-03
        234    20 -228.041505 -228.041065 4.401338e-04   1.000 5.32861e-04 1.03465e-03
        235    20 -228.041500 -228.041136 3.639046e-04   1.000 5.21091e-04 1.02654e-03
        236    20 -228.041497 -228.041176 3.211947e-04   1.000 5.12216e-04 1.01857e-03
        237    20 -228.041495 -228.041185 3.102429e-04   1.000 5.04298e-04 1.01049e-03
        238    20 -228.041493 -228.041171 3.227868e-04   1.000 4.97120e-04 1.00231e-03
        239    19 -228.041492 -228.041142 3.504590e-04   1.000 4.90449e-04 9.94225e-04
        240    20 -228.041491 -228.041107 3.838595e-04   1.000 4.83995e-04 9.86407e-04
        241    19 -228.041490 -228.041077 4.130831e-04   1.000 4.77607e-04 9.78993e-04
        242    20 -228.041489 -228.041054 4.346512e-04   1.000 4.71188e-04 9.72090e-04
        243    19 -228.041489 -228.041046 4.433076e-04   1.000 4.64862e-04 9.65775e-04
        244    20 -228.041490 -228.041050 4.406104e-04   1.000 4.58368e-04 9.60043e-04
        245    20 -228.041493 -228.041063 4.301841e-04   1.000 4.51908e-04 9.54767e-04
        246    20 -228.041498 -228.041082 4.162288e-04   1.000 4.45821e-04 9.49723e-04
        247    20 -228.041503 -228.041100 4.022048e-04   1.000 4.40622e-04 9.44685e-04
        248    19 -228.041510 -228.041115 3.952498e-04   1.000 4.36997e-04 9.39530e-04
        249    20 -228.041513 -228.041130 3.837057e-04   1.000 4.34425e-04 9.34278e-04
        250    20 -228.041519 -228.041137 3.816551e-04   1.000 4.32666e-04 9.29049e-04
        251    20 -228.041521 -228.041144 3.775368e-04   1.000 4.30843e-04 9.23988e-04
        252    20 -228.041523 -228.041149 3.741110e-04   1.000 4.28336e-04 9.19194e-04
        253    21 -228.041525 -228.041157 3.680211e-04   1.000 4.24890e-04 9.14702e-04
        254    21 -228.041524 -228.041165 3.590516e-04   1.000 4.20159e-04 9.10494e-04
        255    20 -228.041523 -228.041175 3.482379e-04   1.000 4.14490e-04 9.06534e-04
        256    21 -228.041522 -228.041185 3.363389e-04   1.000 4.07888e-04 9.02781e-04
        257    21 -228.041520 -228.041195 3.257551e-04   1.000 4.01231e-04 8.99192e-04
        258    20 -228.041518 -228.041202 3.158411e-04   1.000 3.94076e-04 8.95729e-04
        259    19 -228.041518 -228.041207 3.105928e-04   1.000 3.87880e-04 8.92354e-04
        260    20 -228.041517 -228.041210 3.068540e-04   1.000 3.81813e-04 8.89045e-04
        261    20 -228.041516 -228.041210 3.056687e-04   1.000 3.76285e-04 8.85797e-04
        262    20 -228.041516 -228.041209 3.069113e-04   1.000 3.71423e-04 8.82625e-04
        263    21 -228.041517 -228.041209 3.076357e-04   1.000 3.66878e-04 8.79548e-04
        264    20 -228.041517 -228.041210 3.066570e-04   1.000 3.62388e-04 8.76580e-04
        265    19 -228.041518 -228.041213 3.046408e-04   1.000 3.58278e-04 8.73723e-04
        266    20 -228.041519 -228.041219 3.004699e-04   1.000 3.54352e-04 8.70968e-04
        267    22 -228.041520 -228.041228 2.925982e-04   1.000 3.50589e-04 8.68301e-04
        268    20 -228.041522 -228.041237 2.848474e-04   1.000 3.47334e-04 8.65705e-04
        269    19 -228.041523 -228.041248 2.745227e-04   1.000 3.43963e-04 8.63168e-04
        270    20 -228.041525 -228.041258 2.668254e-04   1.000 3.41481e-04 8.60682e-04
        271    19 -228.041526 -228.041268 2.578645e-04   1.000 3.38670e-04 8.58247e-04
        272    21 -228.041527 -228.041274 2.526545e-04   1.000 3.36089e-04 8.55862e-04
        273    20 -228.041528 -228.041279 2.496854e-04   1.000 3.33928e-04 8.53538e-04
        274    21 -228.041528 -228.041281 2.474006e-04   1.000 3.30844e-04 8.51281e-04
        275    21 -228.041529 -228.041281 2.482735e-04   1.000 3.28041e-04 8.49098e-04
        276    21 -228.041529 -228.041280 2.487373e-04   1.000 3.24339e-04 8.46994e-04
        277    21 -228.041529 -228.041279 2.502105e-04   1.000 3.20602e-04 8.44965e-04
        278    21 -228.041529 -228.041278 2.507219e-04   1.000 3.16523e-04 8.43006e-04
        279    21 -228.041530 -228.041279 2.508738e-04   1.000 3.12728e-04 8.41105e-04
        280    21 -228.041530 -228.041281 2.484344e-04   1.000 3.08417e-04 8.39254e-04
        281    20 -228.041530 -228.041284 2.460785e-04   1.000 3.04564e-04 8.37443e-04
        282    21 -228.041530 -228.041289 2.414801e-04   1.000 3.00420e-04 8.35667e-04
        283    21 -228.041530 -228.041293 2.369986e-04   1.000 2.96712e-04 8.33926e-04
        284    20 -228.041531 -228.041299 2.319507e-04   1.000 2.93272e-04 8.32217e-04
        285    20 -228.041531 -228.041305 2.263862e-04   1.000 2.89915e-04 8.30544e-04
        286    22 -228.041532 -228.041310 2.216178e-04   1.000 2.86896e-04 8.28906e-04
        287    20 -228.041532 -228.041315 2.167877e-04   1.000 2.83861e-04 8.27303e-04
        288    22 -228.041533 -228.041320 2.136936e-04   1.000 2.81163e-04 8.25734e-04
        289    20 -228.041533 -228.041324 2.097829e-04   1.000 2.78376e-04 8.24198e-04
        290    21 -228.041535 -228.041327 2.084815e-04   1.000 2.76127e-04 8.22692e-04
        291    21 -228.041536 -228.041330 2.056685e-04   1.000 2.73664e-04 8.21213e-04
        292    20 -228.041536 -228.041332 2.044199e-04   1.000 2.71324e-04 8.19761e-04
        293    20 -228.041537 -228.041334 2.030931e-04   1.000 2.68880e-04 8.18335e-04
        294    22 -228.041538 -228.041335 2.029249e-04   1.000 2.66766e-04 8.16935e-04
        295    19 -228.041539 -228.041337 2.017397e-04   1.000 2.64443e-04 8.15563e-04
        296    21 -228.041540 -228.041338 2.016681e-04   1.000 2.62151e-04 8.14217e-04
        297    21 -228.041540 -228.041339 2.004682e-04   1.000 2.59583e-04 8.12899e-04
        298    21 -228.041541 -228.041341 2.001375e-04   1.000 2.57114e-04 8.11609e-04
        299    21 -228.041541 -228.041342 1.986675e-04   1.000 2.54293e-04 8.10344e-04
        300    20 -228.041542 -228.041344 1.981048e-04   1.000 2.51892e-04 8.09103e-04
        301    21 -228.041542 -228.041346 1.956307e-04   1.000 2.48809e-04 8.07885e-04
        302    21 -228.041543 -228.041348 1.945062e-04   1.000 2.46279e-04 8.06686e-04
        303    21 -228.041543 -228.041351 1.919545e-04   1.000 2.43430e-04 8.05505e-04
        304    21 -228.041544 -228.041354 1.901174e-04   1.000 2.41015e-04 8.04342e-04
        305    21 -228.041544 -228.041357 1.872357e-04   1.000 2.38354e-04 8.03194e-04
        306    21 -228.041544 -228.041360 1.847719e-04   1.000 2.35810e-04 8.02061e-04
        307    22 -228.041545 -228.041362 1.826824e-04   1.000 2.33494e-04 8.00944e-04
        308    20 -228.041545 -228.041365 1.801483e-04   1.000 2.31165e-04 7.99841e-04
        309    22 -228.041546 -228.041367 1.786719e-04   1.000 2.29019e-04 7.98752e-04
        310    19 -228.041547 -228.041370 1.766894e-04   1.000 2.27009e-04 7.97676e-04
        311    22 -228.041547 -228.041372 1.755505e-04   1.000 2.24878e-04 7.96614e-04
        312    20 -228.041548 -228.041374 1.746273e-04   1.000 2.23237e-04 7.95564e-04
        313    21 -228.041548 -228.041375 1.733395e-04   1.000 2.20995e-04 7.94525e-04
        314    20 -228.041549 -228.041376 1.731126e-04   1.000 2.19380e-04 7.93499e-04
        315    21 -228.041550 -228.041377 1.722354e-04   1.000 2.17351e-04 7.92483e-04
        316    21 -228.041550 -228.041379 1.715604e-04   1.000 2.15476e-04 7.91479e-04
        317    21 -228.041551 -228.041380 1.712292e-04   1.000 2.13701e-04 7.90486e-04
        318    21 -228.041551 -228.041381 1.700934e-04   1.000 2.11725e-04 7.89503e-04
        319    22 -228.041552 -228.041383 1.695507e-04   1.000 2.09859e-04 7.88531e-04
        320    20 -228.041552 -228.041384 1.682924e-04   1.000 2.07898e-04 7.87570e-04
        321    21 -228.041553 -228.041386 1.676402e-04   1.000 2.05973e-04 7.86618e-04
        322    21 -228.041554 -228.041387 1.663985e-04   1.000 2.04139e-04 7.85675e-04
        323    21 -228.041554 -228.041389 1.654183e-04   1.000 2.02233e-04 7.84741e-04
        324    21 -228.041554 -228.041391 1.639414e-04   1.000 2.00192e-04 7.83815e-04
        325    21 -228.041555 -228.041392 1.634318e-04   1.000 1.98465e-04 7.82898e-04
        326    21 -228.041556 -228.041394 1.620318e-04   1.000 1.96583e-04 7.81987e-04
        327    22 -228.041556 -228.041395 1.610270e-04   1.000 1.94658e-04 7.81083e-04
        328    20 -228.041557 -228.041397 1.602242e-04   1.000 1.93047e-04 7.80187e-04
        329    21 -228.041557 -228.041398 1.591576e-04   1.000 1.91104e-04 7.79296e-04
        330    20 -228.041558 -228.041399 1.585501e-04   1.000 1.89646e-04 7.78411e-04
        331    21 -228.041558 -228.041401 1.574565e-04   1.000 1.87720e-04 7.77532e-04
        332    21 -228.041559 -228.041402 1.570214e-04   1.000 1.86408e-04 7.76036e-04
        333    22 -228.041560 -228.041410 1.496310e-04   1.000 2.02635e-04 7.70449e-04
        334    23 -228.041571 -228.041498 7.244691e-05   1.000 2.38885e-04 7.54887e-04
        335    22 -228.041584 -228.041559 2.588669e-05   1.000 2.84713e-04 7.39837e-04
        336    23 -228.041597 -228.041564 3.375412e-05   1.000 3.33733e-04 7.26000e-04
        337    19 -228.041609 -228.041532 7.648752e-05   1.000 3.80565e-04 7.12045e-04
        338    22 -228.041614 -228.041488 1.262623e-04   1.000 4.21416e-04 6.97667e-04
        339    22 -228.041620 -228.041457 1.629188e-04   1.000 4.64054e-04 6.83400e-04
        340    22 -228.041623 -228.041449 1.743681e-04   1.000 5.03498e-04 6.69469e-04
        341    22 -228.041625 -228.041457 1.683877e-04   1.000 5.37614e-04 6.55775e-04
        342    22 -228.041624 -228.041472 1.524890e-04   1.000 5.57460e-04 6.42505e-04
        343    21 -228.041622 -228.041486 1.361711e-04   1.000 5.61179e-04 6.30266e-04
        344    22 -228.041616 -228.041493 1.228333e-04   1.000 5.46644e-04 6.19539e-04
        345    19 -228.041609 -228.041498 1.113713e-04   1.000 5.20409e-04 6.10267e-04
        346    22 -228.041601 -228.041498 1.027395e-04   1.000 4.87193e-04 6.01805e-04
        347    22 -228.041592 -228.041501 9.124414e-05   1.000 4.52132e-04 5.93370e-04
        348    22 -228.041585 -228.041504 8.063870e-05   1.000 4.20674e-04 5.84334e-04
        349    22 -228.041577 -228.041507 6.993863e-05   1.000 3.93187e-04 5.74371e-04
        350    22 -228.041571 -228.041508 6.277728e-05   1.000 3.72236e-04 5.63430e-04
        351    22 -228.041565 -228.041505 5.994132e-05   1.000 3.55110e-04 5.51705e-04
        352    22 -228.041561 -228.041500 6.087728e-05   1.000 3.41807e-04 5.39503e-04
        353    22 -228.041556 -228.041492 6.358555e-05   1.000 3.29800e-04 5.27166e-04
        354    22 -228.041551 -228.041486 6.504875e-05   1.000 3.18897e-04 5.14970e-04
        355    22 -228.041546 -228.041484 6.254495e-05   1.000 3.06818e-04 5.03121e-04
        356    24 -228.041541 -228.041490 5.067206e-05   1.000 2.97375e-04 4.91901e-04
        357    24 -228.041539 -228.041497 4.149718e-05   1.000 2.89499e-04 4.81576e-04
        358    24 -228.041537 -228.041505 3.244218e-05   1.000 2.82105e-04 4.72437e-04
        359    23 -228.041537 -228.041513 2.378248e-05   1.000 2.74992e-04 4.64754e-04
        360    22 -228.041540 -228.041521 1.864102e-05   1.000 2.68498e-04 4.58616e-04
        361    22 -228.041541 -228.041525 1.606340e-05   1.000 2.61913e-04 4.53943e-04
        362    22 -228.041544 -228.041522 2.167029e-05   1.000 2.54888e-04 4.50521e-04
        363    22 -228.041546 -228.041517 2.926707e-05   1.000 2.46956e-04 4.48053e-04
        364    22 -228.041550 -228.041508 4.194817e-05   1.000 2.39477e-04 4.46194e-04
        365    22 -228.041551 -228.041498 5.270823e-05   1.000 2.31518e-04 4.44631e-04
        366    22 -228.041555 -228.041488 6.642093e-05   1.000 2.24952e-04 4.43118e-04
        367    22 -228.041558 -228.041482 7.526739e-05   1.000 2.19416e-04 4.41495e-04
        368    22 -228.041562 -228.041480 8.264753e-05   1.000 2.16186e-04 4.39678e-04
        369    22 -228.041566 -228.041480 8.574703e-05   1.000 2.14900e-04 4.37646e-04
        370    22 -228.041570 -228.041483 8.768443e-05   1.000 2.15986e-04 4.35423e-04
        371    22 -228.041574 -228.041486 8.839434e-05   1.000 2.19030e-04 4.33070e-04
        372    22 -228.041578 -228.041490 8.815087e-05   1.000 2.22926e-04 4.30671e-04
        373    22 -228.041581 -228.041492 8.853140e-05   1.000 2.26955e-04 4.28325e-04
        374    22 -228.041583 -228.041495 8.822050e-05   1.000 2.29710e-04 4.26127e-04
        375    22 -228.041584 -228.041496 8.844542e-05   1.000 2.30663e-04 4.24154e-04
        376    22 -228.041585 -228.041496 8.841152e-05   1.000 2.29327e-04 4.22450e-04
        377    22 -228.041585 -228.041496 8.871946e-05   1.000 2.25778e-04 4.21021e-04
        378    22 -228.041584 -228.041495 8.907669e-05   1.000 2.20222e-04 4.19840e-04
        379    22 -228.041584 -228.041494 8.956569e-05   1.000 2.13055e-04 4.18853e-04
        380    22 -228.041582 -228.041492 9.012453e-05   1.000 2.04743e-04 4.17990e-04
        381    21 -228.041581 -228.041491 9.049623e-05   1.000 1.95825e-04 4.17173e-04
        382    22 -228.041579 -228.041489 9.054400e-05   1.000 1.86292e-04 4.16332e-04
        383    22 -228.041578 -228.041488 8.998916e-05   1.000 1.77129e-04 4.15405e-04
        384    22 -228.041576 -228.041487 8.880711e-05   1.000 1.67978e-04 4.14349e-04
        385    22 -228.041575 -228.041488 8.697970e-05   1.000 1.59629e-04 4.13139e-04
        386    22 -228.041573 -228.041488 8.452307e-05   1.000 1.51827e-04 4.11769e-04
        387    22 -228.041571 -228.041490 8.156298e-05   1.000 1.45046e-04 4.10250e-04
        388    22 -228.041570 -228.041491 7.835243e-05   1.000 1.39125e-04 4.08611e-04
        389    22 -228.041568 -228.041493 7.496437e-05   1.000 1.34212e-04 4.06886e-04
        390    22 -228.041567 -228.041495 7.182695e-05   1.000 1.30193e-04 4.05119e-04
        391    22 -228.041566 -228.041497 6.884767e-05   1.000 1.26946e-04 4.03352e-04
        392    22 -228.041565 -228.041498 6.641076e-05   1.000 1.24266e-04 4.01620e-04
        393    22 -228.041564 -228.041500 6.484380e-05   1.000 1.22177e-04 3.99954e-04
        394    22 -228.041564 -228.041500 6.364736e-05   1.000 1.20253e-04 3.98371e-04
        395    22 -228.041564 -228.041500 6.375446e-05   1.000 1.18732e-04 3.96876e-04
        396    22 -228.041564 -228.041500 6.394863e-05   1.000 1.17168e-04 3.95466e-04
        397    22 -228.041565 -228.041500 6.528078e-05   1.000 1.15863e-04 3.94129e-04
        398    22 -228.041566 -228.041499 6.681587e-05   1.000 1.14676e-04 3.92844e-04
        399    22 -228.041567 -228.041498 6.868171e-05   1.000 1.13748e-04 3.91591e-04
        400    22 -228.041568 -228.041497 7.044843e-05   1.000 1.13003e-04 3.90349e-04
        401    22 -228.041569 -228.041497 7.239158e-05   1.000 1.12682e-04 3.89099e-04
        402    22 -228.041570 -228.041496 7.391035e-05   1.000 1.12657e-04 3.87828e-04
        403    22 -228.041572 -228.041496 7.526953e-05   1.000 1.13054e-04 3.86527e-04
        404    22 -228.041573 -228.041497 7.622763e-05   1.000 1.13763e-04 3.85195e-04
        405    22 -228.041574 -228.041497 7.697701e-05   1.000 1.14797e-04 3.83836e-04
        406    22 -228.041575 -228.041498 7.738451e-05   1.000 1.15988e-04 3.82460e-04
        407    22 -228.041576 -228.041499 7.766105e-05   1.000 1.17284e-04 3.81077e-04
        408    22 -228.041577 -228.041500 7.775496e-05   1.000 1.18521e-04 3.79702e-04
        409    22 -228.041578 -228.041500 7.779594e-05   1.000 1.19609e-04 3.78347e-04
        410    22 -228.041579 -228.041501 7.777857e-05   1.000 1.20431e-04 3.77023e-04
        411    22 -228.041579 -228.041501 7.773175e-05   1.000 1.20915e-04 3.75739e-04
        412    22 -228.041579 -228.041502 7.765931e-05   1.000 1.21010e-04 3.74501e-04
        413    22 -228.041580 -228.041502 7.753036e-05   1.000 1.20695e-04 3.73309e-04
        414    22 -228.041579 -228.041502 7.731850e-05   1.000 1.19969e-04 3.72161e-04
        415    22 -228.041579 -228.041502 7.700423e-05   1.000 1.18864e-04 3.71053e-04
        416    22 -228.041579 -228.041503 7.654005e-05   1.000 1.17418e-04 3.69976e-04
        417    22 -228.041579 -228.041503 7.595185e-05   1.000 1.15741e-04 3.68923e-04
        418    22 -228.041578 -228.041503 7.516675e-05   1.000 1.13842e-04 3.67886e-04
        419    22 -228.041578 -228.041504 7.426328e-05   1.000 1.11835e-04 3.66856e-04
        420    22 -228.041577 -228.041504 7.319939e-05   1.000 1.09766e-04 3.65826e-04
        421    22 -228.041577 -228.041505 7.206315e-05   1.000 1.07720e-04 3.64793e-04
        422    22 -228.041576 -228.041505 7.087547e-05   1.000 1.05741e-04 3.63754e-04
        423    22 -228.041576 -228.041506 6.965002e-05   1.000 1.03878e-04 3.62709e-04
        424    22 -228.041575 -228.041507 6.848116e-05   1.000 1.02166e-04 3.61658e-04
        425    22 -228.041575 -228.041508 6.738621e-05   1.000 1.00623e-04 3.60604e-04
        426    22 -228.041575 -228.041508 6.637929e-05   1.000 9.92609e-05 3.59550e-04
        427    22 -228.041574 -228.041509 6.555807e-05   1.000 9.80876e-05 3.58499e-04
        428    22 -228.041574 -228.041509 6.484295e-05   1.000 9.70963e-05 3.57455e-04
        429    22 -228.041574 -228.041510 6.430530e-05   1.000 9.62891e-05 3.56420e-04
        430    21 -228.041574 -228.041510 6.393416e-05   1.000 9.56778e-05 3.55395e-04
        431    21 -228.041574 -228.041510 6.368143e-05   1.000 9.52224e-05 3.54381e-04
        432    22 -228.041574 -228.041511 6.355767e-05   1.000 9.48399e-05 3.53376e-04
        433    21 -228.041574 -228.041511 6.362463e-05   1.000 9.47499e-05 3.52380e-04
        434    21 -228.041575 -228.041511 6.370151e-05   1.000 9.47376e-05 3.51391e-04
        435    22 -228.041575 -228.041511 6.382260e-05   1.000 9.47672e-05 3.50406e-04
        436    21 -228.041575 -228.041511 6.408074e-05   1.000 9.51200e-05 3.49422e-04
        437    21 -228.041576 -228.041512 6.420229e-05   1.000 9.54006e-05 3.48438e-04
        438    22 -228.041576 -228.041512 6.449011e-05   1.000 9.58612e-05 3.47451e-04
        439    22 -228.041577 -228.041512 6.461817e-05   1.000 9.63963e-05 3.46461e-04
        440    22 -228.041577 -228.041512 6.479172e-05   1.000 9.69530e-05 3.45466e-04
        441    22 -228.041578 -228.041513 6.496187e-05   1.000 9.75967e-05 3.44468e-04
        442    22 -228.041578 -228.041513 6.503132e-05   1.000 9.81982e-05 3.43465e-04
        443    22 -228.041578 -228.041513 6.508798e-05   1.000 9.87698e-05 3.42459e-04
        444    22 -228.041579 -228.041514 6.510079e-05   1.000 9.92913e-05 3.41451e-04
        445    22 -228.041579 -228.041514 6.509915e-05   1.000 9.96943e-05 3.40442e-04
        446    22 -228.041579 -228.041514 6.505089e-05   1.000 1.00052e-04 3.39433e-04
        447    22 -228.041579 -228.041514 6.496706e-05   1.000 1.00239e-04 3.38424e-04
        448    22 -228.041580 -228.041515 6.482992e-05   1.000 1.00330e-04 3.37415e-04
        449    22 -228.041580 -228.041515 6.464186e-05   1.000 1.00247e-04 3.36408e-04
        450    22 -228.041580 -228.041515 6.443635e-05   1.000 1.00070e-04 3.35402e-04
        451    22 -228.041580 -228.041516 6.416084e-05   1.000 9.97570e-05 3.34395e-04
        452    22 -228.041580 -228.041516 6.384554e-05   1.000 9.93497e-05 3.33388e-04
        453    22 -228.041580 -228.041516 6.348343e-05   1.000 9.88022e-05 3.32379e-04
        454    22 -228.041580 -228.041517 6.311341e-05   1.000 9.82002e-05 3.31368e-04
        455    22 -228.041580 -228.041517 6.269366e-05   1.000 9.75107e-05 3.30354e-04
        456    22 -228.041580 -228.041517 6.226835e-05   1.000 9.67985e-05 3.29337e-04
        457    22 -228.041579 -228.041518 6.179791e-05   1.000 9.60333e-05 3.28316e-04
        458    22 -228.041579 -228.041518 6.137994e-05   1.000 9.52693e-05 3.27291e-04
        459    22 -228.041579 -228.041518 6.091805e-05   1.000 9.45137e-05 3.26262e-04
        460    22 -228.041579 -228.041519 6.048850e-05   1.000 9.37608e-05 3.25230e-04
        461    22 -228.041579 -228.041519 6.008541e-05   1.000 9.30562e-05 3.24195e-04
        462    22 -228.041579 -228.041519 5.969654e-05   1.000 9.23956e-05 3.23157e-04
        463    22 -228.041579 -228.041520 5.937333e-05   1.000 9.17922e-05 3.22118e-04
        464    21 -228.041579 -228.041520 5.917707e-05   1.000 9.13866e-05 3.21077e-04
        465    22 -228.041579 -228.041520 5.866296e-05   1.000 9.06909e-05 3.20036e-04
        466    22 -228.041579 -228.041520 5.865921e-05   1.000 9.03840e-05 3.18994e-04
        467    22 -228.041579 -228.041521 5.836761e-05   1.000 8.99247e-05 3.17953e-04
        468    22 -228.041579 -228.041521 5.826628e-05   1.000 8.96856e-05 3.16912e-04
        469    22 -228.041579 -228.041521 5.806665e-05   1.000 8.93819e-05 3.15871e-04
        470    22 -228.041579 -228.041521 5.802377e-05   1.000 8.92350e-05 3.14830e-04
        471    22 -228.041580 -228.041522 5.789340e-05   1.000 8.90736e-05 3.13790e-04
        472    22 -228.041580 -228.041522 5.787889e-05   1.000 8.90238e-05 3.12750e-04
        473    22 -228.041580 -228.041522 5.777110e-05   1.000 8.89207e-05 3.11710e-04
        474    22 -228.041580 -228.041522 5.776247e-05   1.000 8.89268e-05 3.10669e-04
        475    22 -228.041580 -228.041522 5.770213e-05   1.000 8.89044e-05 3.09628e-04
        476    22 -228.041580 -228.041523 5.767629e-05   1.000 8.89372e-05 3.08586e-04
        477    22 -228.041581 -228.041523 5.761170e-05   1.000 8.89364e-05 3.07544e-04
        478    22 -228.041581 -228.041523 5.756389e-05   1.000 8.89578e-05 3.06501e-04
        479    22 -228.041581 -228.041523 5.751578e-05   1.000 8.89585e-05 3.05458e-04
        480    22 -228.041581 -228.041524 5.741271e-05   1.000 8.89499e-05 3.04414e-04
        481    22 -228.041581 -228.041524 5.734059e-05   1.000 8.89043e-05 3.03370e-04
        482    22 -228.041581 -228.041524 5.721034e-05   1.000 8.88223e-05 3.02326e-04
        483    22 -228.041581 -228.041524 5.712468e-05   1.000 8.87354e-05 3.01281e-04
        484    22 -228.041582 -228.041525 5.695627e-05   1.000 8.86020e-05 3.00236e-04
        485    22 -228.041582 -228.041525 5.680442e-05   1.000 8.83972e-05 2.99191e-04
        486    22 -228.041582 -228.041525 5.662028e-05   1.000 8.81890e-05 2.98145e-04
        487    22 -228.041582 -228.041525 5.645320e-05   1.000 8.79278e-05 2.97099e-04
        488    22 -228.041582 -228.041526 5.623079e-05   1.000 8.76204e-05 2.96053e-04
        489    22 -228.041582 -228.041526 5.602678e-05   1.000 8.73173e-05 2.95006e-04
        490    22 -228.041582 -228.041526 5.580042e-05   1.000 8.69615e-05 2.93959e-04
        491    22 -228.041582 -228.041526 5.557192e-05   1.000 8.66069e-05 2.92911e-04
        492    22 -228.041582 -228.041527 5.530150e-05   1.000 8.61881e-05 2.91863e-04
        493    22 -228.041582 -228.041527 5.509335e-05   1.000 8.58120e-05 2.90814e-04
        494    22 -228.041582 -228.041527 5.482128e-05   1.000 8.53936e-05 2.89765e-04
        495    22 -228.041582 -228.041527 5.459716e-05   1.000 8.50005e-05 2.88714e-04
        496    22 -228.041582 -228.041528 5.432585e-05   1.000 8.45820e-05 2.87664e-04
        497    21 -228.041582 -228.041528 5.416828e-05   1.000 8.42673e-05 2.86613e-04
        498    22 -228.041582 -228.041528 5.381282e-05   1.000 8.38098e-05 2.85562e-04
        499    22 -228.041582 -228.041528 5.367249e-05   1.000 8.34679e-05 2.84511e-04

        ==> Orbital Optimization <==

            Orbital Optimization did not converge in  20 iterations 
            Total energy change: -1.110955e-04
            Final gradient norm: 1.500152e-04

        500    22 -228.041693 -227.899121 1.425723e-01   0.293 8.31045e-05 2.83459e-04
        501    32 -228.042056 -228.045994 3.937847e-03   0.293 6.59141e-02 1.25023e-02
        502    20 -228.040527 -228.044383 3.856347e-03   0.293 2.74202e-02 8.32755e-03
        503    22 -228.041137 -228.043052 1.915443e-03   0.293 2.32624e-02 4.81894e-03
        504    23 -228.040803 -228.040303 5.001706e-04   0.293 1.67293e-02 4.33756e-03
        505    22 -228.042381 -228.041539 8.424183e-04   0.293 1.23944e-02 4.13894e-03
        506    21 -228.042630 -228.039413 3.216656e-03   0.293 1.16753e-02 4.18036e-03
        507    21 -228.042812 -228.039593 3.218053e-03   0.293 1.26152e-02 3.58668e-03
        508    19 -228.042018 -228.039856 2.162189e-03   0.293 9.53362e-03 2.74532e-03
        509    21 -228.041686 -228.040932 7.543685e-04   0.293 8.13065e-03 2.08116e-03
        510    22 -228.041449 -228.041390 5.866887e-05   0.293 6.76692e-03 1.79889e-03
        511    22 -228.041440 -228.041743 3.024309e-04   0.293 5.49809e-03 1.83979e-03
        512    22 -228.041550 -228.042208 6.582731e-04   0.293 4.42874e-03 1.88126e-03
        513    21 -228.041726 -228.042600 8.745052e-04   0.293 4.04256e-03 1.78350e-03
        514    22 -228.041913 -228.042736 8.228447e-04   0.293 4.31656e-03 1.58270e-03
        515    22 -228.042100 -228.042564 4.642183e-04   0.293 4.78021e-03 1.34635e-03
        516    24 -228.042226 -228.042130 9.616267e-05   0.293 5.09406e-03 1.11943e-03
        517    24 -228.042345 -228.041600 7.451017e-04   0.293 5.18079e-03 9.43945e-04
        518    23 -228.042374 -228.041138 1.236542e-03   0.293 5.00718e-03 8.58846e-04
        519    23 -228.042314 -228.040876 1.438569e-03   0.293 4.46001e-03 8.62540e-04
        520    24 -228.042192 -228.040916 1.276301e-03   0.293 3.92366e-03 8.91057e-04
        521    22 -228.042086 -228.041142 9.442847e-04   0.293 3.57577e-03 8.74729e-04
        522    24 -228.041984 -228.041477 5.062752e-04   0.293 3.47982e-03 7.78751e-04
        523    22 -228.041930 -228.041821 1.094299e-04   0.293 3.54616e-03 6.18007e-04
        524    23 -228.041888 -228.042083 1.947120e-04   0.293 3.59225e-03 4.58790e-04
        525    23 -228.041880 -228.042217 3.366722e-04   0.293 3.52009e-03 4.09533e-04
        526    24 -228.041873 -228.042224 3.512583e-04   0.293 3.32037e-03 4.82802e-04
        527    23 -228.041859 -228.042135 2.760177e-04   0.293 3.06234e-03 5.64946e-04
        528    22 -228.041848 -228.041989 1.409014e-04   0.293 2.82688e-03 5.88990e-04
        529    23 -228.041816 -228.041826 1.010772e-05   0.293 2.64640e-03 5.48125e-04
        530    22 -228.041805 -228.041674 1.306136e-04   0.293 2.49936e-03 4.72269e-04
        531    24 -228.041779 -228.041557 2.216934e-04   0.293 2.31698e-03 4.13293e-04
        532    23 -228.041769 -228.041483 2.856672e-04   0.293 2.08561e-03 4.10329e-04
        533    24 -228.041762 -228.041457 3.054409e-04   0.293 1.82983e-03 4.46107e-04
        534    24 -228.041767 -228.041474 2.926101e-04   0.293 1.62324e-03 4.76974e-04
        535    23 -228.041782 -228.041524 2.575636e-04   0.293 1.52367e-03 4.79752e-04
        536    23 -228.041794 -228.041593 2.012538e-04   0.293 1.51576e-03 4.56451e-04
        537    24 -228.041810 -228.041664 1.450608e-04   0.293 1.53542e-03 4.24623e-04
        538    22 -228.041822 -228.041728 9.433523e-05   0.293 1.52547e-03 4.04269e-04
        539    22 -228.041836 -228.041775 6.067383e-05   0.293 1.47092e-03 4.02881e-04
        540    22 -228.041839 -228.041804 3.496801e-05   0.293 1.38949e-03 4.11317e-04
        541    21 -228.041840 -228.041815 2.503837e-05   0.293 1.31630e-03 4.15674e-04
        542    22 -228.041833 -228.041811 2.167218e-05   0.293 1.26029e-03 4.08761e-04
        543    21 -228.041831 -228.041802 2.956802e-05   0.293 1.23231e-03 3.92308e-04
        544    22 -228.041825 -228.041787 3.731771e-05   0.293 1.19715e-03 3.73530e-04
        545    21 -228.041827 -228.041775 5.134137e-05   0.293 1.15489e-03 3.59465e-04
        546    22 -228.041826 -228.041764 6.197043e-05   0.293 1.09007e-03 3.52072e-04
        547    22 -228.041834 -228.041756 7.802693e-05   0.293 1.03178e-03 3.47665e-04
        548    22 -228.041841 -228.041750 9.105455e-05   0.293 9.86048e-04 3.40861e-04
        549    21 -228.041853 -228.041746 1.069972e-04   0.293 9.69324e-04 3.28674e-04
        550    22 -228.041862 -228.041744 1.185787e-04   0.293 9.64898e-04 3.11929e-04
        551    21 -228.041874 -228.041742 1.318245e-04   0.293 9.66533e-04 2.94110e-04
        552    22 -228.041881 -228.041742 1.390376e-04   0.293 9.53839e-04 2.78797e-04
        553    22 -228.041887 -228.041743 1.440400e-04   0.293 9.33304e-04 2.67226e-04
        554    22 -228.041891 -228.041746 1.446126e-04   0.293 9.06947e-04 2.57767e-04
        555    22 -228.041892 -228.041752 1.406110e-04   0.293 8.86869e-04 2.47642e-04
[...]
       1316    18 -228.393347 -228.393341 6.254932e-06   0.002 2.70268e-04 3.86004e-06
       1317    18 -228.393347 -228.393341 6.417343e-06   0.002 2.66727e-04 3.85407e-06
       1318    18 -228.393346 -228.393341 5.491547e-06   0.002 2.62447e-04 3.84816e-06
       1319    18 -228.393345 -228.393341 3.855790e-06   0.002 2.57895e-04 3.84227e-06
       1320    18 -228.393342 -228.393341 1.673888e-06   0.002 2.53658e-04 3.83639e-06
       1321    18 -228.393340 -228.393341 5.476589e-07   0.002 2.50106e-04 3.83049e-06
       1322    18 -228.393337 -228.393341 3.298392e-06   0.002 2.47280e-04 3.82456e-06
       1323    18 -228.393336 -228.393341 4.826456e-06   0.002 2.44838e-04 3.81862e-06
       1324    18 -228.393334 -228.393341 6.326395e-06   0.002 2.42371e-04 3.81269e-06
       1325    18 -228.393334 -228.393341 6.809557e-06   0.002 2.39482e-04 3.80679e-06
       1326    18 -228.393334 -228.393341 6.770855e-06   0.002 2.36148e-04 3.80091e-06
       1327    18 -228.393335 -228.393341 5.966958e-06   0.002 2.32325e-04 3.79506e-06
       1328    18 -228.393336 -228.393341 4.733287e-06   0.002 2.28461e-04 3.78921e-06
       1329    18 -228.393338 -228.393341 3.155924e-06   0.002 2.24841e-04 3.78336e-06
       1330    18 -228.393340 -228.393341 1.556784e-06   0.002 2.21631e-04 3.77750e-06
       1331    18 -228.393342 -228.393341 8.697730e-07   0.002 2.18813e-04 3.77163e-06
       1332    18 -228.393342 -228.393341 1.147487e-06   0.002 2.16210e-04 3.76576e-06
       1333    18 -228.393344 -228.393341 2.523720e-06   0.002 2.13645e-04 3.75990e-06
       1334    18 -228.393344 -228.393341 2.620734e-06   0.002 2.10938e-04 3.75405e-06
       1335    16 -228.393344 -228.393341 2.702436e-06   0.002 2.07565e-04 3.74822e-06
       1336    18 -228.393343 -228.393341 2.131917e-06   0.002 2.05283e-04 3.74238e-06
       1337    16 -228.393342 -228.393341 1.339276e-06   0.002 2.01842e-04 3.73658e-06
       1338    18 -228.393341 -228.393341 3.952307e-07   0.002 1.99688e-04 3.73077e-06
       1339    16 -228.393340 -228.393341 5.941346e-07   0.002 1.96522e-04 3.72497e-06
       1340    16 -228.393339 -228.393341 2.346233e-06   0.002 1.94323e-04 3.71916e-06
       1341    16 -228.393338 -228.393341 2.777600e-06   0.002 1.91720e-04 3.71337e-06
       1342    16 -228.393338 -228.393341 2.698709e-06   0.002 1.89613e-04 3.70758e-06
       1343    16 -228.393338 -228.393341 3.194197e-06   0.002 1.86861e-04 3.70181e-06
       1344    16 -228.393338 -228.393341 2.830109e-06   0.002 1.84376e-04 3.69604e-06
       1345    16 -228.393338 -228.393341 2.706679e-06   0.002 1.81615e-04 3.69028e-06
       1346    16 -228.393339 -228.393341 2.238435e-06   0.002 1.79225e-04 3.68452e-06
       1347    17 -228.393341 -228.393341 4.201045e-07   0.002 1.76990e-04 3.67878e-06
       1348    17 -228.393341 -228.393341 4.293921e-07   0.002 1.74663e-04 3.67303e-06
       1349    16 -228.393336 -228.393341 5.404430e-06   0.002 1.71749e-04 3.66728e-06
       1350    16 -228.393345 -228.393341 3.841132e-06   0.002 1.69718e-04 3.66155e-06
       1351    16 -228.393340 -228.393341 1.044719e-06   0.002 1.67464e-04 3.65582e-06
       1352    16 -228.393344 -228.393341 2.650343e-06   0.002 1.65309e-04 3.65010e-06
       1353    16 -228.393334 -228.393341 7.099112e-06   0.002 1.63071e-04 3.64438e-06
       1354    16 -228.393347 -228.393341 5.827510e-06   0.002 1.61241e-04 3.63868e-06
       1355    16 -228.393339 -228.393341 2.367747e-06   0.002 1.58874e-04 3.63298e-06
       1356    16 -228.393343 -228.393341 2.072519e-06   0.002 1.56924e-04 3.62728e-06
       1357    16 -228.393339 -228.393341 1.626044e-06   0.002 1.54614e-04 3.62159e-06
       1358    16 -228.393341 -228.393341 4.336619e-07   0.002 1.52838e-04 3.61591e-06
       1359    16 -228.393340 -228.393341 1.461876e-06   0.002 1.50659e-04 3.61023e-06
       1360    16 -228.393341 -228.393341 3.689050e-07   0.002 1.48707e-04 3.60457e-06
       1361    16 -228.393340 -228.393341 1.607227e-06   0.002 1.46648e-04 3.59890e-06
       1362    16 -228.393340 -228.393341 1.605189e-06   0.002 1.44756e-04 3.59325e-06
       1363    17 -228.393341 -228.393341 1.378245e-07   0.002 1.43115e-04 3.58760e-06
       1364    16 -228.393339 -228.393341 2.058683e-06   0.002 1.40484e-04 3.58195e-06
       1365    16 -228.393338 -228.393341 3.125620e-06   0.002 1.39046e-04 3.57632e-06
       1366    16 -228.393343 -228.393341 1.876251e-06   0.002 1.37076e-04 3.57068e-06
       1367    15 -228.393339 -228.393341 1.852318e-06   0.002 1.35507e-04 3.56506e-06
       1368    16 -228.393343 -228.393341 1.465148e-06   0.002 1.33422e-04 3.55944e-06
       1369    15 -228.393340 -228.393341 1.270097e-06   0.002 1.31720e-04 3.55383e-06
       1370    16 -228.393343 -228.393341 1.819881e-06   0.002 1.30157e-04 3.54822e-06
       1371    15 -228.393340 -228.393341 6.856788e-07   0.002 1.28707e-04 3.54262e-06
       1372    16 -228.393342 -228.393341 1.277321e-06   0.002 1.26696e-04 3.53702e-06
       1373    15 -228.393339 -228.393341 1.760778e-06   0.002 1.25178e-04 3.53144e-06
       1374    16 -228.393343 -228.393341 1.496620e-06   0.002 1.23576e-04 3.52585e-06
       1375    15 -228.393340 -228.393341 1.204522e-06   0.002 1.21906e-04 3.52028e-06
       1376    15 -228.393344 -228.393341 3.062490e-06   0.002 1.20320e-04 3.51471e-06
       1377    15 -228.393338 -228.393341 2.783939e-06   0.002 1.18816e-04 3.50915e-06
       1378    15 -228.393344 -228.393341 2.434472e-06   0.002 1.17180e-04 3.50359e-06
       1379    15 -228.393339 -228.393341 2.565511e-06   0.002 1.15709e-04 3.49804e-06
       1380    15 -228.393344 -228.393341 2.506391e-06   0.002 1.14101e-04 3.49250e-06
       1381    15 -228.393339 -228.393341 2.589971e-06   0.002 1.12692e-04 3.48696e-06
       1382    15 -228.393344 -228.393341 2.470376e-06   0.002 1.11189e-04 3.48143e-06
       1383    15 -228.393339 -228.393341 2.392689e-06   0.002 1.09772e-04 3.47591e-06
       1384    15 -228.393344 -228.393341 2.447586e-06   0.002 1.08311e-04 3.47039e-06
       1385    15 -228.393339 -228.393341 1.967506e-06   0.002 1.07566e-04 3.46488e-06
       1386    15 -228.393343 -228.393341 2.216817e-06   0.002 1.05790e-04 3.45938e-06
       1387    15 -228.393339 -228.393341 1.760884e-06   0.002 1.04321e-04 3.45388e-06
       1388    15 -228.393343 -228.393341 2.191189e-06   0.002 1.02966e-04 3.44838e-06
       1389    15 -228.393340 -228.393341 1.564574e-06   0.002 1.01580e-04 3.44289e-06
       1390    15 -228.393343 -228.393341 2.150131e-06   0.002 1.00387e-04 3.43741e-06
       1391    15 -228.393340 -228.393341 1.398831e-06   0.002 9.90264e-05 3.43194e-06
       1392    15 -228.393343 -228.393341 2.012604e-06   0.002 9.78892e-05 3.42647e-06
       1393    15 -228.393340 -228.393341 1.253504e-06   0.002 9.64975e-05 3.42101e-06
       1394    15 -228.393343 -228.393341 1.887123e-06   0.002 9.54546e-05 3.41556e-06
       1395    15 -228.393340 -228.393341 1.142202e-06   0.002 9.40442e-05 3.41011e-06
       1396    15 -228.393343 -228.393341 1.795531e-06   0.002 9.29968e-05 3.40467e-06
       1397    15 -228.393340 -228.393341 1.090108e-06   0.002 9.16869e-05 3.39924e-06
       1398    15 -228.393343 -228.393341 1.656261e-06   0.002 9.06931e-05 3.39381e-06
       1399    15 -228.393340 -228.393341 1.014394e-06   0.002 8.94745e-05 3.38839e-06
       1400    15 -228.393343 -228.393341 1.587243e-06   0.002 8.84502e-05 3.38297e-06
       1401    15 -228.393340 -228.393341 9.844281e-07   0.002 8.71959e-05 3.37756e-06
       1402    15 -228.393343 -228.393341 1.551785e-06   0.002 8.62283e-05 3.37216e-06
       1403    15 -228.393340 -228.393341 9.012783e-07   0.002 8.50579e-05 3.36676e-06
       1404    15 -228.393343 -228.393341 1.520847e-06   0.002 8.40904e-05 3.36137e-06
       1405    15 -228.393340 -228.393341 8.118956e-07   0.002 8.28638e-05 3.35598e-06
       1406    15 -228.393343 -228.393341 1.370769e-06   0.002 8.22489e-05 3.35060e-06
       1407    15 -228.393341 -228.393341 4.962398e-07   0.002 8.09946e-05 3.34523e-06
       1408    15 -228.393343 -228.393341 1.479922e-06   0.002 8.00030e-05 3.33987e-06
       1409    15 -228.393341 -228.393341 4.906021e-07   0.002 7.88719e-05 3.33451e-06
       1410    15 -228.393343 -228.393341 1.544407e-06   0.002 7.79792e-05 3.32915e-06
       1411    14 -228.393341 -228.393341 9.759364e-08   0.002 7.63497e-05 3.32380e-06
       1412    15 -228.393343 -228.393341 1.441458e-06   0.002 7.61170e-05 3.31846e-06
       1413    15 -228.393341 -228.393341 4.885712e-07   0.002 7.46978e-05 3.31313e-06
       1414    15 -228.393343 -228.393341 1.612256e-06   0.002 7.41814e-05 3.30780e-06
       1415    15 -228.393341 -228.393341 4.740226e-07   0.002 7.28572e-05 3.30248e-06
       1416    14 -228.393342 -228.393341 4.252163e-07   0.002 7.23435e-05 3.29716e-06
       1417    15 -228.393341 -228.393341 9.752683e-09   0.002 7.12496e-05 3.29185e-06
       1418    15 -228.393343 -228.393341 2.040040e-06   0.002 7.03608e-05 3.28655e-06
       1419    15 -228.393341 -228.393341 7.270505e-07   0.002 6.93567e-05 3.28125e-06
       1420    15 -228.393343 -228.393341 1.684661e-06   0.002 6.86255e-05 3.27596e-06
       1421    15 -228.393341 -228.393341 5.359643e-07   0.002 6.76509e-05 3.27068e-06
       1422    14 -228.393341 -228.393341 4.866133e-07   0.002 6.74004e-05 3.26540e-06
       1423    14 -228.393351 -228.393341 9.352931e-06   0.002 6.68845e-05 3.26013e-06
       1424    15 -228.393336 -228.393341 5.125589e-06   0.002 6.58627e-05 3.25487e-06
       1425    15 -228.393345 -228.393341 4.101388e-06   0.002 6.45106e-05 3.24961e-06
       1426    15 -228.393339 -228.393341 1.984478e-06   0.002 6.39624e-05 3.24435e-06
       1427    15 -228.393344 -228.393341 2.565476e-06   0.002 6.29198e-05 3.23911e-06
       1428    15 -228.393340 -228.393341 1.138258e-06   0.002 6.23796e-05 3.23387e-06
       1429    14 -228.393340 -228.393341 1.185971e-06   0.002 6.13599e-05 3.22863e-06
       1430    14 -228.393340 -228.393341 1.751026e-06   0.002 6.11588e-05 3.22341e-06
       1431    14 -228.393336 -228.393341 5.250720e-06   0.002 6.03273e-05 3.21819e-06
       1432    14 -228.393345 -228.393341 3.197430e-06   0.002 5.95408e-05 3.21298e-06
       1433    15 -228.393341 -228.393341 5.033126e-07   0.002 5.86348e-05 3.20777e-06
       1434    15 -228.393343 -228.393341 2.055987e-06   0.002 5.79957e-05 3.20257e-06
       1435    15 -228.393341 -228.393341 3.390419e-08   0.002 5.72151e-05 3.19737e-06
       1436    15 -228.393343 -228.393341 1.745251e-06   0.002 5.66968e-05 3.19218e-06
       1437    15 -228.393341 -228.393341 3.168406e-08   0.002 5.58400e-05 3.18700e-06
       1438    15 -228.393343 -228.393341 1.629115e-06   0.002 5.53777e-05 3.18182e-06
       1439    14 -228.393343 -228.393341 2.011168e-06   0.002 5.45702e-05 3.17665e-06
       1440    14 -228.393348 -228.393341 6.830410e-06   0.002 5.46728e-05 3.17149e-06
       1441    15 -228.393338 -228.393341 3.352608e-06   0.002 5.35179e-05 3.16634e-06
       1442    15 -228.393344 -228.393341 2.770333e-06   0.002 5.29528e-05 3.16118e-06
       1443    15 -228.393340 -228.393341 1.100985e-06   0.002 5.21509e-05 3.15604e-06
       1444    15 -228.393343 -228.393341 1.595213e-06   0.002 5.17303e-05 3.15090e-06
       1445    15 -228.393341 -228.393341 3.888962e-07   0.002 5.09644e-05 3.14577e-06
       1446    15 -228.393343 -228.393341 1.570395e-06   0.002 5.05490e-05 3.14064e-06
       1447    15 -228.393341 -228.393341 1.392777e-07   0.002 4.98152e-05 3.13552e-06
       1448    14 -228.393341 -228.393341 4.823765e-07   0.002 5.00930e-05 3.13041e-06
       1449    13 -228.393344 -228.393341 2.195725e-06   0.002 4.89801e-05 3.12531e-06
       1450    13 -228.393342 -228.393341 2.417186e-07   0.002 4.85151e-05 3.12021e-06
       1451    14 -228.393335 -228.393341 6.816550e-06   0.002 4.85504e-05 3.11512e-06
       1452    14 -228.393347 -228.393341 5.213727e-06   0.002 4.76219e-05 3.11004e-06
       1453    15 -228.393340 -228.393341 1.253467e-06   0.002 4.68570e-05 3.10495e-06
       1454    13 -228.393344 -228.393341 2.631738e-06   0.002 4.61636e-05 3.09988e-06
       1455    15 -228.393342 -228.393341 8.366695e-08   0.002 4.59024e-05 3.09481e-06
       1456    13 -228.393343 -228.393341 1.735209e-06   0.002 4.52366e-05 3.08975e-06
       1457    15 -228.393342 -228.393341 2.470312e-07   0.002 4.49837e-05 3.08469e-06
       1458    13 -228.393343 -228.393341 1.199812e-06   0.002 4.42761e-05 3.07965e-06
       1459    15 -228.393342 -228.393341 2.366749e-07   0.002 4.41020e-05 3.07460e-06
       1460    13 -228.393343 -228.393341 1.392668e-06   0.002 4.34487e-05 3.06957e-06
       1461    15 -228.393341 -228.393341 2.670053e-09   0.002 4.32608e-05 3.06454e-06
       1462    13 -228.393342 -228.393341 9.468352e-07   0.002 4.25912e-05 3.05952e-06
       1463    15 -228.393342 -228.393341 1.792693e-07   0.002 4.24138e-05 3.05450e-06
       1464    13 -228.393343 -228.393341 1.373980e-06   0.002 4.17591e-05 3.04949e-06
       1465    15 -228.393342 -228.393341 7.318557e-08   0.002 4.15724e-05 3.04448e-06
       1466    13 -228.393343 -228.393341 1.237739e-06   0.002 4.09265e-05 3.03949e-06
       1467    15 -228.393342 -228.393341 3.249996e-07   0.002 4.07636e-05 3.03449e-06
       1468    13 -228.393343 -228.393341 1.353697e-06   0.002 4.01507e-05 3.02951e-06
       1469    15 -228.393342 -228.393341 4.291907e-07   0.002 4.00121e-05 3.02453e-06
       1470    13 -228.393343 -228.393341 1.468881e-06   0.002 3.94273e-05 3.01956e-06
       1471    15 -228.393342 -228.393341 4.722303e-07   0.002 3.92911e-05 3.01459e-06
       1472    13 -228.393343 -228.393341 1.506942e-06   0.002 3.87324e-05 3.00963e-06
       1473    15 -228.393342 -228.393342 4.927993e-07   0.002 3.85998e-05 3.00468e-06
       1474    13 -228.393343 -228.393342 1.508740e-06   0.002 3.80517e-05 2.99974e-06
       1475    15 -228.393342 -228.393342 4.668069e-07   0.002 3.79037e-05 2.99479e-06
       1476    13 -228.393343 -228.393342 1.360229e-06   0.002 3.73900e-05 2.98986e-06
       1477    15 -228.393342 -228.393342 4.570222e-07   0.002 3.72700e-05 2.98493e-06
       1478    13 -228.393343 -228.393342 1.358310e-06   0.002 3.67680e-05 2.98001e-06
       1479    15 -228.393342 -228.393342 3.780356e-07   0.002 3.66627e-05 2.97510e-06
       1480    13 -228.393343 -228.393342 1.094242e-06   0.002 3.61589e-05 2.97019e-06
       1481    13 -228.393340 -228.393342 1.129519e-06   0.002 3.58085e-05 2.96529e-06
       1482    13 -228.393346 -228.393342 4.752934e-06   0.002 3.56118e-05 2.96040e-06
       1483    15 -228.393340 -228.393342 1.580367e-06   0.002 3.56265e-05 2.95551e-06
       1484    13 -228.393344 -228.393342 2.340460e-06   0.002 3.48708e-05 2.95063e-06
       1485    13 -228.393341 -228.393342 9.080528e-07   0.002 3.46496e-05 2.94576e-06
       1486    13 -228.393345 -228.393342 3.679757e-06   0.002 3.44833e-05 2.94090e-06
       1487    15 -228.393341 -228.393342 7.729426e-07   0.002 3.45379e-05 2.93604e-06
       1488    12 -228.393345 -228.393342 3.859182e-06   0.002 3.41018e-05 2.93120e-06
       1489    13 -228.393341 -228.393342 5.781201e-07   0.002 3.43076e-05 2.92637e-06
       1490    13 -228.393344 -228.393342 2.305019e-06   0.002 3.35263e-05 2.92153e-06
       1491    15 -228.393342 -228.393342 1.198016e-07   0.002 3.39825e-05 2.91670e-06
       1492    13 -228.393343 -228.393342 1.511548e-06   0.002 3.30956e-05 2.91187e-06
       1493    13 -228.393342 -228.393342 2.256602e-07   0.002 3.33258e-05 2.90705e-06
       1494    15 -228.393343 -228.393342 1.836940e-06   0.002 3.29554e-05 2.90223e-06
       1495    13 -228.393342 -228.393342 5.189824e-07   0.002 3.27586e-05 2.89742e-06
       1496    13 -228.393345 -228.393342 3.410737e-06   0.002 3.24377e-05 2.89263e-06
       1497    15 -228.393341 -228.393342 5.189719e-07   0.002 3.27139e-05 2.88783e-06
       1498    13 -228.393343 -228.393342 1.861226e-06   0.002 3.20919e-05 2.88303e-06
       1499    13 -228.393341 -228.393342 4.360677e-07   0.002 3.20648e-05 2.87825e-06

        ==> Orbital Optimization <==

            Orbital Optimization converged in   2 iterations 
            Total energy change: -4.547474e-13
            Final gradient norm: 1.831719e-07

       1500    13 -228.393346 -228.393341 4.500821e-06   0.026 3.21434e-05 2.87350e-06
       1501    19 -228.393341 -228.393342 9.912289e-07   0.026 2.85479e-05 2.90324e-06
       1502    19 -228.393344 -228.393342 2.056360e-06   0.026 2.19873e-05 2.90244e-06
       1503    18 -228.393342 -228.393342 1.781455e-08   0.026 1.80286e-05 2.90100e-06
       1504    18 -228.393343 -228.393342 1.005571e-06   0.026 1.60253e-05 2.89486e-06
       1505    17 -228.393342 -228.393342 2.597247e-07   0.026 1.41459e-05 2.88788e-06
       1506    17 -228.393343 -228.393342 6.264576e-07   0.026 1.19412e-05 2.88238e-06
       1507    16 -228.393343 -228.393342 5.931403e-07   0.026 9.74403e-06 2.87855e-06

        ==> Orbital Optimization <==

            Orbital Optimization converged in   2 iterations 
            Total energy change: -9.663381e-13
            Final gradient norm: 2.290663e-07


      v2RDM iterations converged!

      v2RDM total spin [S(S+1)]:            -0.000001
    * v2RDM total energy:           -228.393342811795


 # Natural Orbital Occupation Numbers (alpha) #
 Irrep: 1
      1:  1.0000000
      2:  1.0000000
      3:  1.0000000
      4:  1.0000000
      5:  1.0000000
      6:  1.0000000
      7:  0.0000000
      8:  0.0000000
      9:  0.0000000

 Irrep: 2
      1:  1.0000000
      2:  1.0000000
      3:  1.0000000
      4:  0.0000000
      5:  0.0000000
      6:  0.0000000

 Irrep: 3
      1:  0.4999999

 Irrep: 4
      1:  0.5000006
      2:  0.5000002

 Irrep: 5
      1:  0.4999995

 Irrep: 6
      1:  0.5000002
      2:  0.4999996

 Irrep: 7
      1:  1.0000000
      2:  1.0000000
      3:  1.0000000
      4:  1.0000000
      5:  1.0000000
      6:  0.0000000
      7:  0.0000000
      8:  0.0000000
      9:  0.0000000

 Irrep: 8
      1:  1.0000000
      2:  1.0000000
      3:  1.0000000
      4:  1.0000000
      5:  0.0000000
      6:  0.0000000


 # Natural Orbital Occupation Numbers (beta) #
 Irrep: 1
      1:  1.0000000
      2:  1.0000000
      3:  1.0000000
      4:  1.0000000
      5:  1.0000000
      6:  1.0000000
      7:  0.0000000
      8:  0.0000000
      9:  0.0000000

 Irrep: 2
      1:  1.0000000
      2:  1.0000000
      3:  1.0000000
      4:  0.0000000
      5:  0.0000000
      6:  0.0000000

 Irrep: 3
      1:  0.4999999

 Irrep: 4
      1:  0.5000006
      2:  0.5000002

 Irrep: 5
      1:  0.4999995

 Irrep: 6
      1:  0.5000002
      2:  0.4999996

 Irrep: 7
      1:  1.0000000
      2:  1.0000000
      3:  1.0000000
      4:  1.0000000
      5:  1.0000000
      6:  0.0000000
      7:  0.0000000
      8:  0.0000000
      9:  0.0000000

 Irrep: 8
      1:  1.0000000
      2:  1.0000000
      3:  1.0000000
      4:  1.0000000
      5:  0.0000000
      6:  0.0000000


  ==> Iteration count <==

      Microiterations:                   24802
      Macroiterations:                    1508
      Orbital optimization steps:            4

  ==> Wall time <==

      Microiterations:                    3.79 s
      Macroiterations:                    1.02 s
      Orbital optimization:               0.41 s
      Total:                              5.66 s


*** tstop() called on ed10 at Thu Jun 14 17:09:27 2018
Module time:
	user time   =       5.27 seconds =       0.09 minutes
	system time =       0.23 seconds =       0.00 minutes
	total time  =          5 seconds =       0.08 minutes
Total time:
	user time   =      61.40 seconds =       1.02 minutes
	system time =       0.47 seconds =       0.01 minutes
	total time  =         64 seconds =       1.07 minutes
	v2RDM-CASSCF total energy.........................................PASSED

    Psi4 stopped on: Thursday, 14 June 2018 05:09PM
    Psi4 wall time for execution: 0:01:04.81

*** Psi4 exiting successfully. Buy a developer a beer!
