    -----------------------------------------------------------------------
          Psi4: An Open-Source Ab Initio Electronic Structure Package
                              Psi4 0.4.224 Driver

                          Git: Rev {master} e38ff50 

    J. M. Turney, A. C. Simmonett, R. M. Parrish, E. G. Hohenstein,
    F. A. Evangelista, J. T. Fermann, B. J. Mintz, L. A. Burns, J. J. Wilke,
    M. L. Abrams, N. J. Russ, M. L. Leininger, C. L. Janssen, E. T. Seidl,
    W. D. Allen, H. F. Schaefer, R. A. King, E. F. Valeev, C. D. Sherrill,
    and T. D. Crawford, WIREs Comput. Mol. Sci. 2, 556-565 (2012)
    (doi: 10.1002/wcms.93)

                         Additional Contributions by
    A. E. DePrince, U. Bozkaya, A. Yu. Sokolov, D. G. A. Smith, R. Di Remigio,
    R. M. Richard, J. F. Gonthier, H. R. McAlexander, M. Saitow, and
    B. P. Pritchard
    -----------------------------------------------------------------------


    Psi4 started on: Fri Apr  8 14:55:49 2016

    Process ID:  15323
    PSI4DATADIR: /edfs/users/edgroup/software/psi4/install/psi4-gcc-release/share/psi4
    Memory level set to 256.000 MB

  ==> Input File <==

--------------------------------------------------------------------------
#! H3 / cc-pvdz / D+D3 vs full CI, scf_type = PK

# job description
print '        H3 / cc-pvdz / D+D3 vs full CI, scf_type = PK'

sys.path.insert(0, '../../..')
import v2rdm_casscf

molecule h3 {
0 2
H
H 1 1.0
H 1 2.0 2 90.0
}

set {
  guess sad
  basis sto-3g
  scf_type pk
  d_convergence      1e-10
  guess sad
  maxiter 500
  reference rohf

}
set v2rdm_casscf {
  positivity d
  constrain_d3 true
  r_convergence  1e-5
  e_convergence  1e-6
  maxiter 20000
  optimize_orbitals false
  semicanonicalize_orbitals false
}

activate(h3)
v2rdm = energy('v2rdm-casscf')
fci   = energy('fci')

compare_values(v2rdm, fci, 5, "v2RDM vs full CI") # TEST

--------------------------------------------------------------------------
/edfs/users/deprince/chem/v2rdm_casscf/v2rdm_casscf.so loaded.

*** tstart() called on ed4
*** at Fri Apr  8 14:55:50 2016


         ---------------------------------------------------------
                                   SCF
            by Justin Turney, Rob Parrish, and Andy Simmonett
                             ROHF Reference
                        1 Threads,    256 MiB Core
         ---------------------------------------------------------

  ==> Geometry <==

    Molecular point group: cs
    Full point group: Cs

    Geometry (in Angstrom), charge = 0, multiplicity = 2:

       Center              X                  Y                   Z               Mass       
    ------------   -----------------  -----------------  -----------------  -----------------
           H          0.666666666667     0.333333333333     0.000000000000     1.007825032070
           H          0.666666666667    -0.666666666667     0.000000000000     1.007825032070
           H         -1.333333333333     0.333333333333     0.000000000000     1.007825032070

  Running in cs symmetry.

  Rotational constants: A =     35.98571  B =      5.83115  C =      5.01802 [cm^-1]
  Rotational constants: A = 1078824.39973  B = 174813.35711  C = 150436.53082 [MHz]
  Nuclear repulsion =    1.030421054995165

  Charge       = 0
  Multiplicity = 2
  Electrons    = 3
  Nalpha       = 2
  Nbeta        = 1

  ==> Algorithm <==

  SCF Algorithm Type is PK.
  DIIS enabled.
  MOM disabled.
  Fractional occupation disabled.
  Guess Type is SAD.
  Energy threshold   = 1.00e-08
  Density threshold  = 1.00e-10
  Integral threshold = 0.00e+00

  ==> Primary Basis <==

  Basis Set: STO-3G
    Number of shells: 3
    Number of basis function: 3
    Number of Cartesian functions: 3
    Spherical Harmonics?: true
    Max angular momentum: 0

  ==> Pre-Iterations <==

   -------------------------------------------------------
    Irrep   Nso     Nmo     Nalpha   Nbeta   Ndocc  Nsocc
   -------------------------------------------------------
     A'         3       3       0       0       0       0
     A"         0       0       0       0       0       0
   -------------------------------------------------------
    Total       3       3       2       1       1       1
   -------------------------------------------------------

  ==> Integral Setup <==

	Batch   1 pq = [       0,       6] index = [             0,21]
  ==> DiskJK: Disk-Based J/K Matrices <==

    J tasked:                  Yes
    K tasked:                  Yes
    wK tasked:                  No
    Memory (MB):               183
    Schwarz Cutoff:          1E-12

  Minimum eigenvalue in the overlap matrix is 5.0189908481E-01.
  Using Symmetric Orthogonalization.
  SCF Guess: Superposition of Atomic Densities via on-the-fly atomic UHF.

  ==> Iterations <==

                        Total Energy        Delta E     RMS |[F,P]|

   @ROHF iter   0:    -1.41417100164035   -1.41417e+00   0.00000e+00 
   @ROHF iter   1:    -0.58141553777446    8.32755e-01   9.35796e-02 
   @ROHF iter   2:    -1.09097542293345   -5.09560e-01   7.86441e-02 DIIS
   @ROHF iter   3:    -1.51925839237199   -4.28283e-01   2.14183e-02 DIIS
   @ROHF iter   4:    -1.52678424699109   -7.52585e-03   2.98101e-03 DIIS
   @ROHF iter   5:    -1.52692269024700   -1.38443e-04   9.26907e-05 DIIS
   @ROHF iter   6:    -1.52692281324262   -1.22996e-07   8.84695e-06 DIIS
   @ROHF iter   7:    -1.52692281438236   -1.13974e-09   4.84250e-07 DIIS
   @ROHF iter   8:    -1.52692281438612   -3.75877e-12   4.35683e-10 DIIS
   @ROHF iter   9:    -1.52692281438612   -1.33227e-15   2.22402e-12 DIIS

  ==> Post-Iterations <==

    Orbital Energies (a.u.)
    -----------------------

    Doubly Occupied:                                                      

       1Ap    -0.490236  

    Singly Occupied:                                                      

       2Ap    -0.064297  

    Virtual:                                                              

       3Ap     0.457501  

    Final Occupation by Irrep:
             Ap   App 
    DOCC [     1,    0 ]
    SOCC [     1,    0 ]

  Energy converged.

  @ROHF Final Energy:    -1.52692281438612

   => Energetics <=

    Nuclear Repulsion Energy =              1.0304210549951651
    One-Electron Energy =                  -3.6846887642415771
    Two-Electron Energy =                   1.1273448948602935
    DFT Exchange-Correlation Energy =       0.0000000000000000
    Empirical Dispersion Energy =           0.0000000000000000
    PCM Polarization Energy =               0.0000000000000000
    EFP Energy =                            0.0000000000000000
    Total Energy =                         -1.5269228143861182

    Alert: EFP and PCM quantities not currently incorporated into SCF psivars.

Properties will be evaluated at   0.000000,   0.000000,   0.000000 Bohr
  ==> Properties <==


Properties computed using the SCF density matrix

  Nuclear Dipole Moment: (a.u.)
     X:     0.0000      Y:     0.0000      Z:     0.0000

  Electronic Dipole Moment: (a.u.)
     X:     0.0228      Y:    -0.0018      Z:     0.0000

  Dipole Moment: (a.u.)
     X:     0.0228      Y:    -0.0018      Z:     0.0000     Total:     0.0229

  Dipole Moment: (Debye)
     X:     0.0579      Y:    -0.0046      Z:     0.0000     Total:     0.0581


  Saving occupied orbitals to File 180.

*** tstop() called on ed4 at Fri Apr  8 14:55:50 2016
Module time:
	user time   =       0.06 seconds =       0.00 minutes
	system time =       0.04 seconds =       0.00 minutes
	total time  =          0 seconds =       0.00 minutes
Total time:
	user time   =       0.06 seconds =       0.00 minutes
	system time =       0.04 seconds =       0.00 minutes
	total time  =          0 seconds =       0.00 minutes

Reading options from the V2RDM_CASSCF block
Calling plugin v2rdm_casscf.so.



*** tstart() called on ed4
*** at Fri Apr  8 14:55:50 2016



        ****************************************************
        *                                                  *
        *    v2RDM-CASSCF                                  *
        *                                                  *
        *    A variational 2-RDM-driven approach to the    *
        *    active space self-consistent field method     *
        *                                                  *
        ****************************************************


        The following papers should be cited when using v2RDM-CASSCF:

        J. Fosso-Tande, D. R. Nascimento, and A. E. DePrince III,
        Mol. Phys. 114, 423-430 (2015).

            URL: http://dx.doi.org/10.1080/00268976.2015.1078008

        J. Fosso-Tande, T.-S. Nguyen, G. Gidofalvi, and
        A. E. DePrince III, submitted (2016).


  ==> Convergence parameters <==

        r_convergence:                      1.000e-05
        e_convergence:                      1.000e-06
        cg_convergence:                     1.000e-05
        maxiter:                                20000
        cg_maxiter:                             10000

  ==> Active space details <==

        Number of frozen core orbitals:             0
        Number of restricted occupied orbitals:     0
        Number of active occupied orbitals:         1
        Number of active virtual orbitals:          2
        Number of restricted virtual orbitals:      0
        Number of frozen virtual orbitals:          0

        Irrep:             Ap, App 
 
        frozen_docc     [   0,   0 ]
        restricted_docc [   0,   0 ]
        active          [   3,   0 ]
        restricted_uocc [   0,   0 ]
        frozen_uocc     [   0,   0 ]

  ==> Orbital optimization parameters <==

        1-step algorithm:                       1
        g_convergence:                  1.000e-04
        e_convergence:                  1.000e-08
        maximum iterations:                    20
        frequency:                            500
        active-active rotations:                0
        exact diagonal Hessian:                 0
        number of DIIS vectors:                 0
        print iteration info:                   0

  ==> Memory requirements <==

        D2:                          0.00 mb
        D3:                          0.00 mb

        Total number of variables:            299
        Total number of constraints:          256
        Total memory requirements:        0.02 mb

    ==> Transform two-electron integrals <==

	Presorting SO-basis two-electron integrals.
	Sorting File: SO Ints (nn|nn) nbuckets = 1
	Transforming the one-electron integrals and constructing Fock matrices
	Starting first half-transformation.
	Sorting half-transformed integrals.
	First half integral transformation complete.
	Starting second half-transformation.
	Two-electron integral transformation complete.

        Time for integral transformation:     0.08 s

    Molecular point group: cs
    Full point group: Cs

    Geometry (in Angstrom), charge = 0, multiplicity = 2:

       Center              X                  Y                   Z               Mass       
    ------------   -----------------  -----------------  -----------------  -----------------
           H          0.666666666667     0.333333333333     0.000000000000     1.007825032070
           H          0.666666666667    -0.666666666667     0.000000000000     1.007825032070
           H         -1.333333333333     0.333333333333     0.000000000000     1.007825032070

  -AO BASIS SET INFORMATION:
    Name                   = STO-3G
    Total number of shells = 3
    Number of primitives   = 9
    Number of AO           = 3
    Number of SO           = 3
    Maximum AM             = 0
    Spherical Harmonics    = TRUE

  -Contraction Scheme:
    Atom   Type   All Primitives // Shells:
   ------ ------ --------------------------
       1     H     3s // 1s 
       2     H     3s // 1s 
       3     H     3s // 1s 

  ==> AO Basis Functions <==

    [ STO-3G ]
    spherical
    ****
    H   1
    S   3 1.00
                         3.42525091           0.15432897
                         0.62391373           0.53532814
                         0.16885540           0.44463454
    ****
    H   2
    S   3 1.00
                         3.42525091           0.15432897
                         0.62391373           0.53532814
                         0.16885540           0.44463454
    ****
    H   3
    S   3 1.00
                         3.42525091           0.15432897
                         0.62391373           0.53532814
                         0.16885540           0.44463454
    ****


        Read integrals......done.


    reference energy:          -1.526922814386
    frozen core energy:         0.000000000000
    initial 2-RDM energy:      -2.602887615495

      oiter iiter        E(p)        E(d)      E gap)      mu     eps(p)     eps(d)
          0    17    1.972957   21.803661   19.830704   1.000   20.76654   28.32057
          1    13   -0.540210  -19.253189   18.712979   1.000    2.48475   12.10535
          2    15   -0.544331   -5.051455    4.507124   1.000    3.39750    2.72521
          3    10   -2.376172   -2.664541    0.288369   1.000    3.68955    1.85968
          4    11   -0.779067   -2.195592    1.416525   1.000    1.75188    1.52398
          5    11   -1.469866   -1.265485    0.204381   1.000    1.51725    0.93079
          6    11   -1.146575   -1.606346    0.459771   1.000    1.01402    0.75091
          7    10   -1.373778   -1.056176    0.317602   1.000    0.71031    0.50313
          8    11   -1.284386   -1.144694    0.139692   1.000    0.46494    0.41960
          9    10   -1.399635   -1.034676    0.364960   1.000    0.33722    0.32946
         10    10   -1.376168   -1.157605    0.218563   1.000    0.32025    0.27724
         11    10   -1.423489   -1.235256    0.188233   1.000    0.30268    0.23322
         12    10   -1.439048   -1.360099    0.078949   1.000    0.23266    0.21129
         13     7   -1.475662   -1.395949    0.079712   1.000    0.18842    0.17373
         14     8   -1.486001   -1.413120    0.072882   1.000    0.18472    0.13365
         15     9   -1.503527   -1.394176    0.109351   1.000    0.15966    0.12688
         16    10   -1.509440   -1.357607    0.151833   1.000    0.12665    0.12801
         17    10   -1.510946   -1.319763    0.191183   1.000    0.07163    0.13349
         18    10   -1.521123   -1.369225    0.151898   1.000    0.06078    0.12610
         19    10   -1.531226   -1.366080    0.165145   1.000    0.06184    0.11789
         20    10   -1.540723   -1.386968    0.153756   1.000    0.06171    0.11187
         21    10   -1.545259   -1.383245    0.162015   1.000    0.06413    0.10405
         22    10   -1.546717   -1.399690    0.147027   1.000    0.06834    0.08926
         23     9   -1.568792   -1.428852    0.139941   1.000    0.06578    0.07068
         24     9   -1.569762   -1.481560    0.088202   1.000    0.07483    0.06196
         25    10   -1.571214   -1.504600    0.066614   1.000    0.08627    0.04832
         26    10   -1.573116   -1.519338    0.053778   1.000    0.09319    0.02772
         27    11   -1.573646   -1.543560    0.030086   1.000    0.09159    0.02056
         28    10   -1.572739   -1.579863    0.007124   1.000    0.08064    0.02173
         29    10   -1.569660   -1.612877    0.043217   1.000    0.05910    0.02762
         30     8   -1.565914   -1.631811    0.065896   1.000    0.03244    0.03267
         31     8   -1.562076   -1.634392    0.072315   1.000    0.01174    0.03333
         32    10   -1.558530   -1.626274    0.067744   1.000    0.02107    0.03021
         33     8   -1.555754   -1.611513    0.055759   1.000    0.03544    0.02438
         34     8   -1.553861   -1.594622    0.040761   1.000    0.04445    0.01698
         35    10   -1.553311   -1.576389    0.023078   1.000    0.04717    0.00986
         36    11   -1.553944   -1.558270    0.004326   1.000    0.04398    0.00746
         37    11   -1.555388   -1.542529    0.012859   1.000    0.03570    0.01132
         38    10   -1.557397   -1.530417    0.026980   1.000    0.02392    0.01551
         39     8   -1.559688   -1.523744    0.035944   1.000    0.01065    0.01786
         40     6   -1.561857   -1.523049    0.038808   1.000    0.00486    0.01793
         41    10   -1.563831   -1.527342    0.036488   1.000    0.01518    0.01589
         42     8   -1.565240   -1.535873    0.029367   1.000    0.02324    0.01228
         43    10   -1.566074   -1.546356    0.019718   1.000    0.02743    0.00799
         44    10   -1.566242   -1.557857    0.008386   1.000    0.02775    0.00460
         45    12   -1.565778   -1.568113    0.002336   1.000    0.02456    0.00503
         46    10   -1.564994   -1.576418    0.011424   1.000    0.01878    0.00757
         47    10   -1.563771   -1.581803    0.018031   1.000    0.01153    0.00953
         48     7   -1.562569   -1.584029    0.021460   1.000    0.00424    0.01030
         49     8   -1.561283   -1.583174    0.021891   1.000    0.00447    0.00984
         50     9   -1.560297   -1.579786    0.019490   1.000    0.00985    0.00832
         51     8   -1.559588   -1.574612    0.015024   1.000    0.01361    0.00609
         52    10   -1.559286   -1.568594    0.009307   1.000    0.01524    0.00366
         53    10   -1.559336   -1.562350    0.003014   1.000    0.01478    0.00218
         54    11   -1.559718   -1.556955    0.002763   1.000    0.01251    0.00315
         55    10   -1.560292   -1.552734    0.007558   1.000    0.00894    0.00465
         56     8   -1.561028   -1.550205    0.010823   1.000    0.00473    0.00562
         57     7   -1.561752   -1.549504    0.012248   1.000    0.00131    0.00585
         58    10   -1.562463   -1.550377    0.012086   1.000    0.00396    0.00538
         59     8   -1.562976   -1.552695    0.010281   1.000    0.00685    0.00436
         60    10   -1.563305   -1.555816    0.007489   1.000    0.00861    0.00300
         61    10   -1.563414   -1.559454    0.003960   1.000    0.00913    0.00170
         62    11   -1.563317   -1.562900    0.000416   1.000    0.00847    0.00136
         63    11   -1.563072   -1.565879    0.002807   1.000    0.00687    0.00214
         64    10   -1.562712   -1.567981    0.005269   1.000    0.00464    0.00291
         65     8   -1.562293   -1.569115    0.006822   1.000    0.00221    0.00331
         66     8   -1.561886   -1.569160    0.007274   1.000    0.00100    0.00330
         67     9   -1.561521   -1.568353    0.006832   1.000    0.00267    0.00291
         68     8   -1.561263   -1.566813    0.005550   1.000    0.00411    0.00224
         69    10   -1.561118   -1.564902    0.003784   1.000    0.00488    0.00144
         70    10   -1.561099   -1.562805    0.001707   1.000    0.00495    0.00078
         71    11   -1.561188   -1.560914    0.000274   1.000    0.00438    0.00086
         72    10   -1.561354   -1.559357    0.001997   1.000    0.00333    0.00137
         73    10   -1.561582   -1.558347    0.003236   1.000    0.00201    0.00176
         74     7   -1.561819   -1.557909    0.003911   1.000    0.00076    0.00192
         75     8   -1.562066   -1.558055    0.004011   1.000    0.00108    0.00184
         76    10   -1.562246   -1.558672    0.003574   1.000    0.00207    0.00155
         77    10   -1.562384   -1.559645    0.002739   1.000    0.00277    0.00113
         78    10   -1.562441   -1.560796    0.001645   1.000    0.00308    0.00068
         79    11   -1.562432   -1.561968    0.000464   1.000    0.00298    0.00041
         80    12   -1.562364   -1.563004    0.000640   1.000    0.00255    0.00059
         81    10   -1.562260   -1.563792    0.001531   1.000    0.00188    0.00088
         82    10   -1.562121   -1.564271    0.002150   1.000    0.00111    0.00106
         83     7   -1.561989   -1.564406    0.002417   1.000    0.00049    0.00110
         84     8   -1.561859   -1.564231    0.002371   1.000    0.00071    0.00101
         85     8   -1.561761   -1.563795    0.002034   1.000    0.00120    0.00082
         86     9   -1.561699   -1.563197    0.001497   1.000    0.00152    0.00056
         87    10   -1.561678   -1.562525    0.000847   1.000    0.00161    0.00031
         88    10   -1.561697   -1.561865    0.000169   1.000    0.00150    0.00024
         89    11   -1.561745   -1.561314    0.000431   1.000    0.00120    0.00039
         90    10   -1.561814   -1.560913    0.000902   1.000    0.00081    0.00054
         91     8   -1.561896   -1.560703    0.001193   1.000    0.00045    0.00062
         92     8   -1.561974   -1.560691    0.001284   1.000    0.00043    0.00062
         93    10   -1.562040   -1.560840    0.001200   1.000    0.00071    0.00055
         94    10   -1.562092   -1.561129    0.000963   1.000    0.00096    0.00042
         95    10   -1.562118   -1.561495    0.000624   1.000    0.00110    0.00027
         96    11   -1.562122   -1.561886    0.000236   1.000    0.00111    0.00015
         97    12   -1.562106   -1.562248    0.000141   1.000    0.00101    0.00016
         98    11   -1.562075   -1.562538    0.000463   1.000    0.00082    0.00026
         99    10   -1.562033   -1.562732    0.000699   1.000    0.00059    0.00033
        100    10   -1.561987   -1.562814    0.000827   1.000    0.00039    0.00036
        101     8   -1.561947   -1.562788    0.000841   1.000    0.00032    0.00035
        102    10   -1.561907   -1.562674    0.000767   1.000    0.00040    0.00029
        103     9   -1.561886   -1.562484    0.000598   1.000    0.00050    0.00021
        104    10   -1.561872   -1.562275    0.000403   1.000    0.00054    0.00013
        105    10   -1.561875   -1.562046    0.000171   1.000    0.00053    0.00008
        106    11   -1.561887   -1.561855    0.000032   1.000    0.00046    0.00011
        107    10   -1.561909   -1.561701    0.000207   1.000    0.00038    0.00017
        108    10   -1.561934   -1.561613    0.000320   1.000    0.00031    0.00020
        109    10   -1.561960   -1.561585    0.000375   1.000    0.00031    0.00021
        110    10   -1.561984   -1.561619    0.000365   1.000    0.00038    0.00019
        111    10   -1.562003   -1.561700    0.000302   1.000    0.00045    0.00016
        112    10   -1.562014   -1.561815    0.000199   1.000    0.00050    0.00011
        113    11   -1.562018   -1.561942    0.000076   1.000    0.00051    0.00006
        114    12   -1.562015   -1.562067    0.000052   1.000    0.00049    0.00005
        115    12   -1.562006   -1.562172    0.000165   1.000    0.00045    0.00008
        116    11   -1.561993   -1.562247    0.000253   1.000    0.00039    0.00010
        117    10   -1.561979   -1.562286    0.000308   1.000    0.00033    0.00012
        118    10   -1.561964   -1.562290    0.000326   1.000    0.00030    0.00012
        119    10   -1.561951   -1.562260    0.000309   1.000    0.00029    0.00011
        120    10   -1.561942   -1.562206    0.000264   1.000    0.00029    0.00008
        121    11   -1.561937   -1.562137    0.000201   1.000    0.00030    0.00005
        122    12   -1.561936   -1.562063    0.000127   1.000    0.00030    0.00003
        123    12   -1.561939   -1.561995    0.000056   1.000    0.00029    0.00003
        124    12   -1.561945   -1.561939    0.000006   1.000    0.00028    0.00005
        125    12   -1.561953   -1.561903    0.000050   1.000    0.00028    0.00006
        126    11   -1.561962   -1.561887    0.000074   1.000    0.00029    0.00007
        127    11   -1.561970   -1.561892    0.000079   1.000    0.00031    0.00007
        128    11   -1.561977   -1.561914    0.000063   1.000    0.00033    0.00006
        129    11   -1.561982   -1.561948    0.000033   1.000    0.00034    0.00004
        130    12   -1.561984   -1.561990    0.000006   1.000    0.00035    0.00003
        131    12   -1.561984   -1.562032    0.000048   1.000    0.00034    0.00002
        132    12   -1.561981   -1.562069    0.000088   1.000    0.00033    0.00003
        133    12   -1.561977   -1.562097    0.000120   1.000    0.00032    0.00003
        134    12   -1.561973   -1.562114    0.000142   1.000    0.00031    0.00004
        135    12   -1.561968   -1.562119    0.000152   1.000    0.00030    0.00004
        136    12   -1.561963   -1.562113    0.000150   1.000    0.00029    0.00004
        137    12   -1.561960   -1.562098    0.000138   1.000    0.00028    0.00003
        138    12   -1.561958   -1.562076    0.000118   1.000    0.00028    0.00002
        139    12   -1.561957   -1.562052    0.000095   1.000    0.00028    0.00002
        140    12   -1.561958   -1.562028    0.000071   1.000    0.00028    0.00002
        141    12   -1.561960   -1.562008    0.000049   1.000    0.00028    0.00002
        142    12   -1.561962   -1.561994    0.000032   1.000    0.00028    0.00002
        143    12   -1.561965   -1.561987    0.000022   1.000    0.00029    0.00003
        144    12   -1.561968   -1.561986    0.000018   1.000    0.00029    0.00003
        145    12   -1.561970   -1.561992    0.000021   1.000    0.00030    0.00002
        146    12   -1.561972   -1.562002    0.000030   1.000    0.00030    0.00002
        147    12   -1.561973   -1.562015    0.000042   1.000    0.00030    0.00002
        148    12   -1.561973   -1.562029    0.000055   1.000    0.00030    0.00001
        149    12   -1.561973   -1.562042    0.000069   1.000    0.00030    0.00001
        150    12   -1.561972   -1.562052    0.000080   1.000    0.00030    0.00002
        151    12   -1.561970   -1.562059    0.000089   1.000    0.00029    0.00002
        152    12   -1.561969   -1.562062    0.000093   1.000    0.00029    0.00002
        153    12   -1.561967   -1.562061    0.000094   1.000    0.00029    0.00002
        154    12   -1.561966   -1.562057    0.000091   1.000    0.00028    0.00002
        155    12   -1.561965   -1.562050    0.000085   1.000    0.00028    0.00001
        156    12   -1.561965   -1.562043    0.000078   1.000    0.00028    0.00001
        157    12   -1.561965   -1.562035    0.000070   1.000    0.00028    0.00001
        158    12   -1.561966   -1.562028    0.000062   1.000    0.00028    0.00001
        159    12   -1.561966   -1.562022    0.000056   1.000    0.00028    0.00001
        160    12   -1.561967   -1.562019    0.000052   1.000    0.00028    0.00001
        161    12   -1.561968   -1.562018    0.000050   1.000    0.00029    0.00001
        162    12   -1.561969   -1.562019    0.000050   1.000    0.00029    0.00001
        163    12   -1.561970   -1.562022    0.000052   1.000    0.00029    0.00001
        164    12   -1.561970   -1.562026    0.000056   1.000    0.00029    0.00001
        165    12   -1.561971   -1.562031    0.000060   1.000    0.00029    0.00001
        166    12   -1.561971   -1.562035    0.000064   1.000    0.00029    0.00001
        167    12   -1.561970   -1.562039    0.000068   1.000    0.00029    0.00001
        168    12   -1.561970   -1.562041    0.000072   1.000    0.00029    0.00001
        169    12   -1.561969   -1.562043    0.000073   1.000    0.00028    0.00001
        170    12   -1.561969   -1.562043    0.000074   1.000    0.00028    0.00001
        171    12   -1.561969   -1.562042    0.000073   1.000    0.00028    0.00001
        172    12   -1.561968   -1.562040    0.000072   1.000    0.00028    0.00001
        173    12   -1.561968   -1.562037    0.000069   1.000    0.00028    0.00001
        174    12   -1.561968   -1.562035    0.000067   1.000    0.00028    0.00001
        175    12   -1.561968   -1.562032    0.000064   1.000    0.00028    0.00001
        176    12   -1.561969   -1.562030    0.000062   1.000    0.00028    0.00001
        177    12   -1.561969   -1.562029    0.000060   1.000    0.00028    0.00001
        178    12   -1.561969   -1.562028    0.000059   1.000    0.00028    0.00001
        179    12   -1.561970   -1.562029    0.000059   1.000    0.00028    0.00001
        180    12   -1.561970   -1.562029    0.000059   1.000    0.00028    0.00001
        181    12   -1.561970   -1.562031    0.000060   1.000    0.00028    0.00001
        182    12   -1.561970   -1.562032    0.000062   1.000    0.00028    0.00001
        183    12   -1.561970   -1.562034    0.000063   1.000    0.00028    0.00001
        184    14   -1.561970   -1.562035    0.000065   1.000    0.00028    0.00001
        185    12   -1.561970   -1.562036    0.000065   1.000    0.00028    0.00001
        186    12   -1.561970   -1.562036    0.000066   1.000    0.00028    0.00001
        187    12   -1.561970   -1.562037    0.000067   1.000    0.00028    0.00001
        188    12   -1.561970   -1.562036    0.000066   1.000    0.00028    0.00001
        189    12   -1.561970   -1.562036    0.000066   1.000    0.00028    0.00001
        190    12   -1.561970   -1.562035    0.000065   1.000    0.00028    0.00001
        191    12   -1.561970   -1.562034    0.000064   1.000    0.00028    0.00001
        192    14   -1.561970   -1.562033    0.000064   1.000    0.00028    0.00001
        193    14   -1.561970   -1.562033    0.000063   1.000    0.00028    0.00001
        194    12   -1.561970   -1.562032    0.000062   1.000    0.00028    0.00001
        195    12   -1.561970   -1.562032    0.000061   1.000    0.00028    0.00001
        196    14   -1.561970   -1.562032    0.000061   1.000    0.00028    0.00001
        197    12   -1.561971   -1.562032    0.000061   1.000    0.00028    0.00001
        198    14   -1.561971   -1.562032    0.000062   1.000    0.00028    0.00001
        199    14   -1.561971   -1.562033    0.000062   1.000    0.00028    0.00001
        200    12   -1.561971   -1.562033    0.000062   1.000    0.00028    0.00001
        201    12   -1.561971   -1.562034    0.000063   1.000    0.00028    0.00001
        202    14   -1.561971   -1.562034    0.000063   1.000    0.00028    0.00001
        203    12   -1.561971   -1.562034    0.000063   1.000    0.00027    0.00001
        204    12   -1.561971   -1.562034    0.000063   1.000    0.00027    0.00001
        205    12   -1.561971   -1.562034    0.000063   1.000    0.00027    0.00001
        206    12   -1.561971   -1.562034    0.000063   1.000    0.00027    0.00001
        207    14   -1.561971   -1.562034    0.000063   1.000    0.00027    0.00001
        208    12   -1.561971   -1.562034    0.000062   1.000    0.00027    0.00001
        209    12   -1.561971   -1.562033    0.000062   1.000    0.00027    0.00001
        210    12   -1.561971   -1.562033    0.000062   1.000    0.00027    0.00001
        211    12   -1.561971   -1.562033    0.000062   1.000    0.00027    0.00001
        212    12   -1.561971   -1.562033    0.000061   1.000    0.00027    0.00001
        213    12   -1.561971   -1.562033    0.000061   1.000    0.00027    0.00001
        214    12   -1.561972   -1.562033    0.000061   1.000    0.00027    0.00001
        215    12   -1.561972   -1.562033    0.000061   1.000    0.00027    0.00001
        216    12   -1.561972   -1.562033    0.000061   1.000    0.00027    0.00001
        217    12   -1.561972   -1.562033    0.000061   1.000    0.00027    0.00001
        218    14   -1.561972   -1.562033    0.000062   1.000    0.00027    0.00001
        219    14   -1.561972   -1.562033    0.000062   1.000    0.00027    0.00001
        220    14   -1.561972   -1.562033    0.000062   1.000    0.00027    0.00001
        221    12   -1.561972   -1.562033    0.000061   1.000    0.00027    0.00001
        222    12   -1.561972   -1.562033    0.000062   1.000    0.00027    0.00001
        223    12   -1.561972   -1.562033    0.000061   1.000    0.00027    0.00001
        224    14   -1.561972   -1.562033    0.000061   1.000    0.00027    0.00001
        225    12   -1.561972   -1.562033    0.000061   1.000    0.00027    0.00001
        226    14   -1.561972   -1.562033    0.000061   1.000    0.00027    0.00001
        227    12   -1.561972   -1.562033    0.000061   1.000    0.00027    0.00001
        228    14   -1.561972   -1.562033    0.000061   1.000    0.00027    0.00001
        229    12   -1.561972   -1.562033    0.000060   1.000    0.00027    0.00001
        230    14   -1.561972   -1.562033    0.000061   1.000    0.00027    0.00001
        231    12   -1.561973   -1.562033    0.000060   1.000    0.00027    0.00001
        232    12   -1.561972   -1.562033    0.000060   1.000    0.00027    0.00001
        233    14   -1.561972   -1.562033    0.000060   1.000    0.00027    0.00001
        234    12   -1.561973   -1.562033    0.000060   1.000    0.00027    0.00001
        235    12   -1.561973   -1.562033    0.000060   1.000    0.00027    0.00001
        236    14   -1.561973   -1.562033    0.000060   1.000    0.00027    0.00001
        237    14   -1.561973   -1.562033    0.000060   1.000    0.00027    0.00001
        238    12   -1.561973   -1.562033    0.000060   1.000    0.00027    0.00001
        239    14   -1.561973   -1.562033    0.000060   1.000    0.00027    0.00001
        240    14   -1.561973   -1.562033    0.000060   1.000    0.00027    0.00001
        241    14   -1.561973   -1.562033    0.000060   1.000    0.00027    0.00001
        242    14   -1.561973   -1.562033    0.000060   1.000    0.00027    0.00001
        243    14   -1.561973   -1.562033    0.000060   1.000    0.00027    0.00001
        244    12   -1.561973   -1.562033    0.000060   1.000    0.00026    0.00001
        245    12   -1.561973   -1.562033    0.000060   1.000    0.00026    0.00001
        246    14   -1.561973   -1.562033    0.000060   1.000    0.00026    0.00001
        247    14   -1.561973   -1.562033    0.000060   1.000    0.00026    0.00001
        248    14   -1.561973   -1.562033    0.000059   1.000    0.00026    0.00001
        249    12   -1.561973   -1.562033    0.000059   1.000    0.00026    0.00001
        250    12   -1.561973   -1.562033    0.000059   1.000    0.00026    0.00001
        251    14   -1.561973   -1.562033    0.000059   1.000    0.00026    0.00001
        252    14   -1.561973   -1.562033    0.000059   1.000    0.00026    0.00001
        253    14   -1.561973   -1.562033    0.000059   1.000    0.00026    0.00001
        254    14   -1.561973   -1.562033    0.000059   1.000    0.00026    0.00001
        255    14   -1.561974   -1.562033    0.000059   1.000    0.00026    0.00001
        256    14   -1.561974   -1.562033    0.000059   1.000    0.00026    0.00001
        257    14   -1.561974   -1.562033    0.000059   1.000    0.00026    0.00001
        258    14   -1.561974   -1.562033    0.000059   1.000    0.00026    0.00001
        259    14   -1.561974   -1.562033    0.000059   1.000    0.00026    0.00001
        260    14   -1.561974   -1.562033    0.000059   1.000    0.00026    0.00001
        261    14   -1.561974   -1.562033    0.000059   1.000    0.00026    0.00001
        262    14   -1.561974   -1.562033    0.000059   1.000    0.00026    0.00001
        263    14   -1.561974   -1.562032    0.000059   1.000    0.00026    0.00001
        264    14   -1.561974   -1.562032    0.000059   1.000    0.00026    0.00001
        265    14   -1.561974   -1.562032    0.000058   1.000    0.00026    0.00001
        266    14   -1.561974   -1.562032    0.000058   1.000    0.00026    0.00001
        267    14   -1.561974   -1.562032    0.000058   1.000    0.00026    0.00001
        268    14   -1.561974   -1.562032    0.000058   1.000    0.00026    0.00001
        269    14   -1.561974   -1.562032    0.000058   1.000    0.00026    0.00001
        270    14   -1.561974   -1.562032    0.000058   1.000    0.00026    0.00001
        271    14   -1.561974   -1.562032    0.000058   1.000    0.00026    0.00001
        272    14   -1.561974   -1.562032    0.000058   1.000    0.00026    0.00001
        273    14   -1.561974   -1.562032    0.000058   1.000    0.00026    0.00001
        274    14   -1.561974   -1.562032    0.000058   1.000    0.00026    0.00001
        275    14   -1.561974   -1.562032    0.000058   1.000    0.00026    0.00001
        276    14   -1.561975   -1.562032    0.000058   1.000    0.00026    0.00001
        277    14   -1.561975   -1.562032    0.000058   1.000    0.00026    0.00001
        278    14   -1.561975   -1.562032    0.000058   1.000    0.00026    0.00001
        279    14   -1.561975   -1.562032    0.000058   1.000    0.00026    0.00001
        280    14   -1.561975   -1.562032    0.000058   1.000    0.00026    0.00001
        281    14   -1.561975   -1.562032    0.000057   1.000    0.00026    0.00001
        282    14   -1.561975   -1.562032    0.000057   1.000    0.00026    0.00001
        283    14   -1.561975   -1.562032    0.000057   1.000    0.00026    0.00001
        284    14   -1.561975   -1.562032    0.000057   1.000    0.00026    0.00001
        285    14   -1.561975   -1.562032    0.000057   1.000    0.00026    0.00001
        286    14   -1.561975   -1.562032    0.000057   1.000    0.00026    0.00001
        287    14   -1.561975   -1.562032    0.000057   1.000    0.00026    0.00001
        288    14   -1.561975   -1.562032    0.000057   1.000    0.00026    0.00001
        289    14   -1.561975   -1.562032    0.000057   1.000    0.00026    0.00001
        290    14   -1.561975   -1.562032    0.000057   1.000    0.00025    0.00001
        291    13   -1.561975   -1.562032    0.000057   1.000    0.00025    0.00001
        292    14   -1.561975   -1.562032    0.000057   1.000    0.00025    0.00001
        293    14   -1.561975   -1.562032    0.000057   1.000    0.00025    0.00001
        294    14   -1.561975   -1.562032    0.000057   1.000    0.00025    0.00001
        295    14   -1.561975   -1.562032    0.000057   1.000    0.00025    0.00001
        296    13   -1.561975   -1.562032    0.000057   1.000    0.00025    0.00001
        297    14   -1.561975   -1.562032    0.000057   1.000    0.00025    0.00001
        298    14   -1.561976   -1.562032    0.000057   1.000    0.00025    0.00001
        299    14   -1.561976   -1.562032    0.000056   1.000    0.00025    0.00001
        300    14   -1.561976   -1.562032    0.000056   1.000    0.00025    0.00001
        301    14   -1.561976   -1.562032    0.000056   1.000    0.00025    0.00001
        302    14   -1.561976   -1.562032    0.000056   1.000    0.00025    0.00001
        303    14   -1.561976   -1.562032    0.000056   1.000    0.00025    0.00001
        304    14   -1.561976   -1.562032    0.000056   1.000    0.00025    0.00001
        305    14   -1.561976   -1.562032    0.000056   1.000    0.00025    0.00001
        306    13   -1.561976   -1.562032    0.000056   1.000    0.00025    0.00001
        307    14   -1.561976   -1.562032    0.000056   1.000    0.00025    0.00001
        308    14   -1.561976   -1.562032    0.000056   1.000    0.00025    0.00001
        309    14   -1.561976   -1.562032    0.000056   1.000    0.00025    0.00001
        310    14   -1.561976   -1.562032    0.000056   1.000    0.00025    0.00001
        311    14   -1.561976   -1.562032    0.000056   1.000    0.00025    0.00001
        312    14   -1.561976   -1.562032    0.000056   1.000    0.00025    0.00001
        313    14   -1.561976   -1.562032    0.000056   1.000    0.00025    0.00001
        314    14   -1.561976   -1.562032    0.000056   1.000    0.00025    0.00001
        315    14   -1.561976   -1.562032    0.000056   1.000    0.00025    0.00001
        316    14   -1.561976   -1.562032    0.000056   1.000    0.00025    0.00001
        317    14   -1.561976   -1.562032    0.000055   1.000    0.00025    0.00001
        318    14   -1.561976   -1.562032    0.000055   1.000    0.00025    0.00001
        319    14   -1.561976   -1.562032    0.000055   1.000    0.00025    0.00001
        320    14   -1.561977   -1.562032    0.000055   1.000    0.00025    0.00001
        321    14   -1.561977   -1.562032    0.000055   1.000    0.00025    0.00001
        322    14   -1.561977   -1.562032    0.000055   1.000    0.00025    0.00001
        323    14   -1.561977   -1.562032    0.000055   1.000    0.00025    0.00001
        324    14   -1.561977   -1.562032    0.000055   1.000    0.00025    0.00001
        325    14   -1.561977   -1.562032    0.000055   1.000    0.00025    0.00001
        326    14   -1.561977   -1.562032    0.000055   1.000    0.00025    0.00001
        327    14   -1.561977   -1.562032    0.000055   1.000    0.00025    0.00001
        328    14   -1.561977   -1.562032    0.000055   1.000    0.00025    0.00001
        329    14   -1.561977   -1.562032    0.000055   1.000    0.00025    0.00001
        330    14   -1.561977   -1.562032    0.000055   1.000    0.00025    0.00001
        331    14   -1.561977   -1.562032    0.000055   1.000    0.00025    0.00001
        332    14   -1.561977   -1.562032    0.000055   1.000    0.00025    0.00001
        333    14   -1.561977   -1.562032    0.000055   1.000    0.00025    0.00001
        334    14   -1.561977   -1.562032    0.000055   1.000    0.00025    0.00001
        335    14   -1.561977   -1.562032    0.000054   1.000    0.00025    0.00001
        336    14   -1.561977   -1.562032    0.000054   1.000    0.00025    0.00001
        337    14   -1.561977   -1.562032    0.000054   1.000    0.00025    0.00001
        338    14   -1.561977   -1.562032    0.000054   1.000    0.00025    0.00001
        339    14   -1.561977   -1.562032    0.000054   1.000    0.00025    0.00001
        340    14   -1.561977   -1.562032    0.000054   1.000    0.00025    0.00001
        341    14   -1.561977   -1.562032    0.000054   1.000    0.00025    0.00001
        342    14   -1.561977   -1.562032    0.000054   1.000    0.00024    0.00001
        343    13   -1.561977   -1.562032    0.000054   1.000    0.00024    0.00001
        344    14   -1.561977   -1.562031    0.000054   1.000    0.00024    0.00001
        345    14   -1.561978   -1.562031    0.000054   1.000    0.00024    0.00001
        346    14   -1.561978   -1.562031    0.000054   1.000    0.00024    0.00001
        347    14   -1.561978   -1.562031    0.000054   1.000    0.00024    0.00001
        348    14   -1.561978   -1.562031    0.000054   1.000    0.00024    0.00001
        349    14   -1.561978   -1.562031    0.000054   1.000    0.00024    0.00001
        350    14   -1.561978   -1.562031    0.000054   1.000    0.00024    0.00001
        351    13   -1.561978   -1.562031    0.000054   1.000    0.00024    0.00001
        352    14   -1.561978   -1.562031    0.000054   1.000    0.00024    0.00001
        353    14   -1.561978   -1.562031    0.000054   1.000    0.00024    0.00001
        354    14   -1.561978   -1.562031    0.000053   1.000    0.00024    0.00001
        355    14   -1.561978   -1.562031    0.000053   1.000    0.00024    0.00001
        356    14   -1.561978   -1.562031    0.000053   1.000    0.00024    0.00001
        357    14   -1.561978   -1.562031    0.000053   1.000    0.00024    0.00001
        358    14   -1.561978   -1.562031    0.000053   1.000    0.00024    0.00001
        359    14   -1.561978   -1.562031    0.000053   1.000    0.00024    0.00001
        360    14   -1.561978   -1.562031    0.000053   1.000    0.00024    0.00001
        361    14   -1.561978   -1.562031    0.000053   1.000    0.00024    0.00001
        362    14   -1.561978   -1.562031    0.000053   1.000    0.00024    0.00001
        363    14   -1.561978   -1.562031    0.000053   1.000    0.00024    0.00001
        364    14   -1.561978   -1.562031    0.000053   1.000    0.00024    0.00001
        365    14   -1.561978   -1.562031    0.000053   1.000    0.00024    0.00001
        366    13   -1.561978   -1.562031    0.000053   1.000    0.00024    0.00001
        367    14   -1.561978   -1.562031    0.000053   1.000    0.00024    0.00001
        368    14   -1.561978   -1.562031    0.000053   1.000    0.00024    0.00001
        369    14   -1.561978   -1.562031    0.000053   1.000    0.00024    0.00001
        370    14   -1.561979   -1.562031    0.000053   1.000    0.00024    0.00001
        371    13   -1.561979   -1.562031    0.000053   1.000    0.00024    0.00001
        372    14   -1.561979   -1.562031    0.000053   1.000    0.00024    0.00001
        373    14   -1.561979   -1.562031    0.000053   1.000    0.00024    0.00001
        374    14   -1.561979   -1.562031    0.000052   1.000    0.00024    0.00001
        375    14   -1.561979   -1.562031    0.000052   1.000    0.00024    0.00001
        376    14   -1.561979   -1.562031    0.000052   1.000    0.00024    0.00001
        377    14   -1.561979   -1.562031    0.000052   1.000    0.00024    0.00001
        378    14   -1.561979   -1.562031    0.000052   1.000    0.00024    0.00001
        379    14   -1.561979   -1.562031    0.000052   1.000    0.00024    0.00001
        380    14   -1.561979   -1.562031    0.000052   1.000    0.00024    0.00001
        381    14   -1.561979   -1.562031    0.000052   1.000    0.00024    0.00001
        382    13   -1.561979   -1.562031    0.000052   1.000    0.00024    0.00001
        383    14   -1.561979   -1.562031    0.000052   1.000    0.00024    0.00001
        384    14   -1.561979   -1.562031    0.000052   1.000    0.00024    0.00001
        385    14   -1.561979   -1.562031    0.000052   1.000    0.00024    0.00001
        386    14   -1.561979   -1.562031    0.000052   1.000    0.00024    0.00001
        387    14   -1.561979   -1.562031    0.000052   1.000    0.00024    0.00001
        388    14   -1.561979   -1.562031    0.000052   1.000    0.00024    0.00001
        389    14   -1.561979   -1.562031    0.000052   1.000    0.00024    0.00001
        390    14   -1.561979   -1.562031    0.000052   1.000    0.00024    0.00001
        391    14   -1.561979   -1.562031    0.000052   1.000    0.00024    0.00001
        392    14   -1.561979   -1.562031    0.000052   1.000    0.00024    0.00001
        393    14   -1.561979   -1.562031    0.000052   1.000    0.00024    0.00001
        394    13   -1.561979   -1.562031    0.000052   1.000    0.00024    0.00001
        395    14   -1.561979   -1.562031    0.000051   1.000    0.00024    0.00001
        396    14   -1.561979   -1.562031    0.000051   1.000    0.00024    0.00001
        397    13   -1.561980   -1.562031    0.000051   1.000    0.00024    0.00001
        398    14   -1.561980   -1.562031    0.000051   1.000    0.00023    0.00001
        399    14   -1.561980   -1.562031    0.000051   1.000    0.00023    0.00001
        400    14   -1.561980   -1.562031    0.000051   1.000    0.00023    0.00001
        401    14   -1.561980   -1.562031    0.000051   1.000    0.00023    0.00001
        402    13   -1.561980   -1.562031    0.000051   1.000    0.00023    0.00001
        403    14   -1.561980   -1.562031    0.000051   1.000    0.00023    0.00001
        404    14   -1.561980   -1.562031    0.000051   1.000    0.00023    0.00001
        405    14   -1.561980   -1.562031    0.000051   1.000    0.00023    0.00001
        406    13   -1.561980   -1.562031    0.000051   1.000    0.00023    0.00001
        407    13   -1.561980   -1.562031    0.000051   1.000    0.00023    0.00001
        408    14   -1.561980   -1.562031    0.000051   1.000    0.00023    0.00001
        409    14   -1.561980   -1.562031    0.000051   1.000    0.00023    0.00001
        410    14   -1.561980   -1.562031    0.000051   1.000    0.00023    0.00001
        411    14   -1.561980   -1.562031    0.000051   1.000    0.00023    0.00001
        412    14   -1.561980   -1.562031    0.000051   1.000    0.00023    0.00001
        413    14   -1.561980   -1.562031    0.000051   1.000    0.00023    0.00001
        414    13   -1.561980   -1.562031    0.000051   1.000    0.00023    0.00001
        415    14   -1.561980   -1.562031    0.000051   1.000    0.00023    0.00001
        416    14   -1.561980   -1.562031    0.000051   1.000    0.00023    0.00001
        417    14   -1.561980   -1.562031    0.000050   1.000    0.00023    0.00001
        418    14   -1.561980   -1.562031    0.000050   1.000    0.00023    0.00001
        419    14   -1.561980   -1.562031    0.000050   1.000    0.00023    0.00001
        420    14   -1.561980   -1.562031    0.000050   1.000    0.00023    0.00001
        421    14   -1.561980   -1.562031    0.000050   1.000    0.00023    0.00001
        422    14   -1.561980   -1.562031    0.000050   1.000    0.00023    0.00001
        423    14   -1.561980   -1.562031    0.000050   1.000    0.00023    0.00001
        424    14   -1.561980   -1.562031    0.000050   1.000    0.00023    0.00001
        425    14   -1.561981   -1.562031    0.000050   1.000    0.00023    0.00001
        426    14   -1.561981   -1.562031    0.000050   1.000    0.00023    0.00001
        427    14   -1.561981   -1.562031    0.000050   1.000    0.00023    0.00001
        428    14   -1.561981   -1.562031    0.000050   1.000    0.00023    0.00001
        429    14   -1.561981   -1.562031    0.000050   1.000    0.00023    0.00001
        430    14   -1.561981   -1.562031    0.000050   1.000    0.00023    0.00001
        431    14   -1.561981   -1.562031    0.000050   1.000    0.00023    0.00001
        432    14   -1.561981   -1.562031    0.000050   1.000    0.00023    0.00001
        433    14   -1.561981   -1.562031    0.000050   1.000    0.00023    0.00001
        434    14   -1.561981   -1.562031    0.000050   1.000    0.00023    0.00001
        435    14   -1.561981   -1.562031    0.000050   1.000    0.00023    0.00001
        436    14   -1.561981   -1.562030    0.000050   1.000    0.00023    0.00001
        437    14   -1.561981   -1.562030    0.000050   1.000    0.00023    0.00001
        438    14   -1.561981   -1.562030    0.000050   1.000    0.00023    0.00001
        439    14   -1.561981   -1.562030    0.000049   1.000    0.00023    0.00001
        440    14   -1.561981   -1.562030    0.000049   1.000    0.00023    0.00001
        441    14   -1.561981   -1.562030    0.000049   1.000    0.00023    0.00001
        442    14   -1.561981   -1.562030    0.000049   1.000    0.00023    0.00001
        443    14   -1.561981   -1.562030    0.000049   1.000    0.00023    0.00001
        444    14   -1.561981   -1.562030    0.000049   1.000    0.00023    0.00001
        445    14   -1.561981   -1.562030    0.000049   1.000    0.00023    0.00001
        446    14   -1.561981   -1.562030    0.000049   1.000    0.00023    0.00001
        447    14   -1.561981   -1.562030    0.000049   1.000    0.00023    0.00001
        448    14   -1.561981   -1.562030    0.000049   1.000    0.00023    0.00001
        449    14   -1.561981   -1.562030    0.000049   1.000    0.00023    0.00001
        450    14   -1.561981   -1.562030    0.000049   1.000    0.00023    0.00001
        451    14   -1.561981   -1.562030    0.000049   1.000    0.00023    0.00001
        452    14   -1.561981   -1.562030    0.000049   1.000    0.00023    0.00001
        453    14   -1.561981   -1.562030    0.000049   1.000    0.00023    0.00001
        454    14   -1.561981   -1.562030    0.000049   1.000    0.00023    0.00001
        455    14   -1.561982   -1.562030    0.000049   1.000    0.00023    0.00001
        456    14   -1.561982   -1.562030    0.000049   1.000    0.00023    0.00001
        457    14   -1.561982   -1.562030    0.000049   1.000    0.00023    0.00001
        458    14   -1.561982   -1.562030    0.000049   1.000    0.00023    0.00001
        459    14   -1.561982   -1.562030    0.000049   1.000    0.00023    0.00001
        460    14   -1.561982   -1.562030    0.000049   1.000    0.00023    0.00001
        461    14   -1.561982   -1.562030    0.000049   1.000    0.00023    0.00001
        462    14   -1.561982   -1.562030    0.000049   1.000    0.00022    0.00001
        463    14   -1.561982   -1.562030    0.000048   1.000    0.00022    0.00001
        464    14   -1.561982   -1.562030    0.000048   1.000    0.00022    0.00001
        465    14   -1.561982   -1.562030    0.000048   1.000    0.00022    0.00001
        466    14   -1.561982   -1.562030    0.000048   1.000    0.00022    0.00001
        467    14   -1.561982   -1.562030    0.000048   1.000    0.00022    0.00001
        468    14   -1.561982   -1.562030    0.000048   1.000    0.00022    0.00001
        469    14   -1.561982   -1.562030    0.000048   1.000    0.00022    0.00001
        470    14   -1.561982   -1.562030    0.000048   1.000    0.00022    0.00001
        471    14   -1.561982   -1.562030    0.000048   1.000    0.00022    0.00001
        472    14   -1.561982   -1.562030    0.000048   1.000    0.00022    0.00001
        473    14   -1.561982   -1.562030    0.000048   1.000    0.00022    0.00001
        474    14   -1.561982   -1.562030    0.000048   1.000    0.00022    0.00001
        475    14   -1.561982   -1.562030    0.000048   1.000    0.00022    0.00001
        476    14   -1.561982   -1.562030    0.000048   1.000    0.00022    0.00001
        477    14   -1.561982   -1.562030    0.000048   1.000    0.00022    0.00001
        478    14   -1.561982   -1.562030    0.000048   1.000    0.00022    0.00001
        479    14   -1.561982   -1.562030    0.000048   1.000    0.00022    0.00001
        480    13   -1.561982   -1.562030    0.000048   1.000    0.00022    0.00001
        481    14   -1.561982   -1.562030    0.000048   1.000    0.00022    0.00001
        482    14   -1.561982   -1.562030    0.000048   1.000    0.00022    0.00001
        483    14   -1.561982   -1.562030    0.000048   1.000    0.00022    0.00001
        484    14   -1.561982   -1.562030    0.000048   1.000    0.00022    0.00001
        485    14   -1.561982   -1.562030    0.000048   1.000    0.00022    0.00001
        486    14   -1.561982   -1.562030    0.000048   1.000    0.00022    0.00001
        487    14   -1.561983   -1.562030    0.000047   1.000    0.00022    0.00001
        488    14   -1.561983   -1.562030    0.000047   1.000    0.00022    0.00001
        489    14   -1.561983   -1.562030    0.000047   1.000    0.00022    0.00001
        490    13   -1.561983   -1.562030    0.000047   1.000    0.00022    0.00001
        491    14   -1.561983   -1.562030    0.000047   1.000    0.00022    0.00001
        492    14   -1.561983   -1.562030    0.000047   1.000    0.00022    0.00001
        493    14   -1.561983   -1.562030    0.000047   1.000    0.00022    0.00001
        494    14   -1.561983   -1.562030    0.000047   1.000    0.00022    0.00001
        495    14   -1.561983   -1.562030    0.000047   1.000    0.00022    0.00001
        496    14   -1.561983   -1.562030    0.000047   1.000    0.00022    0.00001
        497    13   -1.561983   -1.562030    0.000047   1.000    0.00022    0.00001
        498    14   -1.561983   -1.562030    0.000047   1.000    0.00022    0.00001
        499    14   -1.561983   -1.562030    0.000047   1.000    0.00022    0.00001
        500    13   -1.561983   -1.562030    0.000047  30.343    0.00022    0.00001
        501    15   -1.561983   -1.562028    0.000045  30.343    0.00022    0.00007
        502    14   -1.561983   -1.562031    0.000048  30.343    0.00022    0.00008
        503    14   -1.561983   -1.562032    0.000049  30.343    0.00022    0.00010
        504    15   -1.561983   -1.562036    0.000053  30.343    0.00022    0.00013
        505    15   -1.561983   -1.562036    0.000053  30.343    0.00022    0.00017
        506    13   -1.561983   -1.562035    0.000052  30.343    0.00022    0.00020
        507    13   -1.562035   -1.562028    0.000007  30.343    0.00016    0.00166
        508    15   -1.562025   -1.563450    0.001425  30.343    0.00014    0.00125
        509    13   -1.562039   -1.563410    0.001371  30.343    0.00012    0.00087
        510    12   -1.562034   -1.563376    0.001342  30.343    0.00012    0.00067
        511    13   -1.562033   -1.562946    0.000912  30.343    0.00012    0.00075
        512    13   -1.562027   -1.562718    0.000691  30.343    0.00012    0.00066
        513    13   -1.562026   -1.562483    0.000457  30.343    0.00012    0.00045
        514    12   -1.562026   -1.562291    0.000265  30.343    0.00012    0.00035
        515    13   -1.562028   -1.562002    0.000026  30.343    0.00012    0.00038
        516    13   -1.562029   -1.561672    0.000357  30.343    0.00012    0.00042
        517    13   -1.562030   -1.561366    0.000664  30.343    0.00012    0.00048
        518    13   -1.562030   -1.561184    0.000846  30.343    0.00012    0.00053
        519    12   -1.562030   -1.561163    0.000867  30.343    0.00012    0.00054
        520    12   -1.562030   -1.561293    0.000737  30.343    0.00012    0.00051
        521    12   -1.562030   -1.561515    0.000516  30.343    0.00013    0.00046
        522    12   -1.562031   -1.561776    0.000255  30.343    0.00013    0.00043
        523    12   -1.562031   -1.562029    0.000002  30.343    0.00013    0.00042
        524    12   -1.562031   -1.562251    0.000219  30.343    0.00013    0.00044
        525    12   -1.562031   -1.562423    0.000392  30.343    0.00012    0.00048
        526    12   -1.562030   -1.562533    0.000503  30.343    0.00012    0.00052
        527    12   -1.562030   -1.562572    0.000542  30.343    0.00012    0.00053
        528    12   -1.562029   -1.562535    0.000506  30.343    0.00012    0.00053
        529    12   -1.562029   -1.562431    0.000401  30.343    0.00012    0.00052
        530    13   -1.562029   -1.562277    0.000248  30.343    0.00011    0.00051
        531    13   -1.562029   -1.562099    0.000069  30.343    0.00011    0.00050
        532    13   -1.562029   -1.561925    0.000104  30.343    0.00011    0.00051
        533    13   -1.562029   -1.561779    0.000250  30.343    0.00011    0.00053
        534    12   -1.562030   -1.561679    0.000350  30.343    0.00012    0.00056
        535    12   -1.562030   -1.561635    0.000395  30.343    0.00012    0.00057
        536    12   -1.562030   -1.561644    0.000386  30.343    0.00012    0.00058
        537    12   -1.562020   -1.561703    0.000317  30.343    0.00010    0.00101
        538    13   -1.562025   -1.562757    0.000732  30.343    0.00008    0.00133
        539    13   -1.562023   -1.563256    0.001232  30.343    0.00004    0.00158
        540    12   -1.562026   -1.563571    0.001545  30.343    0.00002    0.00160
        541    14   -1.562026   -1.563627    0.001601  30.343    0.00004    0.00139
        542    13   -1.562027   -1.563473    0.001445  30.343    0.00006    0.00104
        543    12   -1.562027   -1.563120    0.001093  30.343    0.00007    0.00073
        544    13   -1.562026   -1.562661    0.000635  30.343    0.00006    0.00070
        545    13   -1.562025   -1.562159    0.000135  30.343    0.00005    0.00087
        546    13   -1.562023   -1.561693    0.000330  30.343    0.00004    0.00102
        547    13   -1.562022   -1.561312    0.000710  30.343    0.00003    0.00104
        548    13   -1.562022   -1.561059    0.000963  30.343    0.00003    0.00094
        549    12   -1.562022   -1.560950    0.001072  30.343    0.00003    0.00078
        550    12   -1.562022   -1.560988    0.001034  30.343    0.00004    0.00067
        551    12   -1.562023   -1.561153    0.000870  30.343    0.00003    0.00066
        552    13   -1.562024   -1.561411    0.000613  30.343    0.00003    0.00072
        553    13   -1.562025   -1.561720    0.000305  30.343    0.00003    0.00075
        554    13   -1.562026   -1.562036    0.000010  30.343    0.00003    0.00072
        555    13   -1.562026   -1.562318    0.000291  30.343    0.00003    0.00065
        556    13   -1.562027   -1.562533    0.000506  30.343    0.00003    0.00057
        557    12   -1.562026   -1.562663    0.000636  30.343    0.00002    0.00054
        558    11   -1.562026   -1.562698    0.000673  30.343    0.00002    0.00057
        559    12   -1.562025   -1.562647    0.000622  30.343    0.00001    0.00061
        560    13   -1.562024   -1.562521    0.000497  30.343    0.00001    0.00062
        561    13   -1.562023   -1.562344    0.000321  30.343    0.00002    0.00059
        562    13   -1.562023   -1.562142    0.000120  30.343    0.00002    0.00052
        563    13   -1.562023   -1.561943    0.000080  30.343    0.00002    0.00046
        564    13   -1.562023   -1.561769    0.000254  30.343    0.00002    0.00044
        565    14   -1.562023   -1.561640    0.000383  30.343    0.00002    0.00047
        566    12   -1.562024   -1.561568    0.000456  30.343    0.00001    0.00051
        567    10   -1.562024   -1.561557    0.000468  30.343    0.00000    0.00052
        568    14   -1.562025   -1.561602    0.000423  30.343    0.00001    0.00051
        569    14   -1.562025   -1.561694    0.000332  30.343    0.00001    0.00047
        570    13   -1.562026   -1.561817    0.000208  30.343    0.00002    0.00043
        571    13   -1.562026   -1.561955    0.000071  30.343    0.00002    0.00040
        572    13   -1.562025   -1.562089    0.000063  30.343    0.00001    0.00041
        573    13   -1.562025   -1.562202    0.000177  30.343    0.00001    0.00043
        574    14   -1.562025   -1.562284    0.000259  30.343    0.00001    0.00044
        575    12   -1.562024   -1.562325    0.000301  30.343    0.00000    0.00044
        576    12   -1.562024   -1.562325    0.000300  30.343    0.00000    0.00043
        577    14   -1.562024   -1.562285    0.000261  30.343    0.00001    0.00041
        578    14   -1.562024   -1.562215    0.000191  30.343    0.00001    0.00039
        579    14   -1.562024   -1.562125    0.000101  30.343    0.00001    0.00038
        580    14   -1.562024   -1.562027    0.000003  30.343    0.00001    0.00038
        581    13   -1.562024   -1.561935    0.000089  30.343    0.00001    0.00038
        582    13   -1.562024   -1.561860    0.000164  30.343    0.00001    0.00039
        583    13   -1.562025   -1.561810    0.000215  30.343    0.00000    0.00038
        584    12   -1.562025   -1.561789    0.000236  30.343    0.00000    0.00038
        585    11   -1.562025   -1.561798    0.000227  30.343    0.00000    0.00037
        586    13   -1.562025   -1.561834    0.000191  30.343    0.00001    0.00037
        587    13   -1.562025   -1.561890    0.000135  30.343    0.00001    0.00036
        588    14   -1.562025   -1.561958    0.000067  30.343    0.00001    0.00036
        589    13   -1.562025   -1.562028    0.000003  30.343    0.00001    0.00035
        590    14   -1.562025   -1.562090    0.000066  30.343    0.00001    0.00035
        591    14   -1.562025   -1.562139    0.000114  30.343    0.00000    0.00035
        592    14   -1.562024   -1.562167    0.000143  30.343    0.00000    0.00035
        593    12   -1.562024   -1.562174    0.000149  30.343    0.00000    0.00035
        594    14   -1.562024   -1.562160    0.000135  30.343    0.00000    0.00034
        595    14   -1.562024   -1.562128    0.000103  30.343    0.00000    0.00034
        596    14   -1.562024   -1.562084    0.000059  30.343    0.00000    0.00033
        597    14   -1.562024   -1.562034    0.000010  30.343    0.00000    0.00033
        598    14   -1.562025   -1.561986    0.000038  30.343    0.00000    0.00033
        599    14   -1.562025   -1.561946    0.000079  30.343    0.00000    0.00032
        600    14   -1.562025   -1.561917    0.000107  30.343    0.00000    0.00032
        601    12   -1.562025   -1.561904    0.000121  30.343    0.00000    0.00032
        602    11   -1.562025   -1.561906    0.000119  30.343    0.00000    0.00032
        603    14   -1.562025   -1.561922    0.000103  30.343    0.00000    0.00032
        604    14   -1.562025   -1.561948    0.000076  30.343    0.00000    0.00031
        605    14   -1.562025   -1.561981    0.000043  30.343    0.00000    0.00031
        606    14   -1.562025   -1.562016    0.000009  30.343    0.00000    0.00031
        607    14   -1.562025   -1.562048    0.000023  30.343    0.00000    0.00031
        608    14   -1.562025   -1.562073    0.000048  30.343    0.00000    0.00030
        609    14   -1.562025   -1.562088    0.000064  30.343    0.00000    0.00030
        610    13   -1.562025   -1.562093    0.000068  30.343    0.00000    0.00030
        611    14   -1.562025   -1.562088    0.000063  30.343    0.00000    0.00030
        612    14   -1.562025   -1.562073    0.000049  30.343    0.00000    0.00030
        613    14   -1.562025   -1.562053    0.000028  30.343    0.00000    0.00029
        614    14   -1.562025   -1.562029    0.000005  30.343    0.00000    0.00029
        615    13   -1.562025   -1.562006    0.000018  30.343    0.00000    0.00029
        616    14   -1.562025   -1.561986    0.000038  30.343    0.00000    0.00029
        617    14   -1.562025   -1.561972    0.000053  30.343    0.00000    0.00029
        618    14   -1.562025   -1.561964    0.000060  30.343    0.00000    0.00028
        619    13   -1.562025   -1.561964    0.000061  30.343    0.00000    0.00028
        620    14   -1.562025   -1.561970    0.000054  30.343    0.00000    0.00028
        621    14   -1.562025   -1.561982    0.000043  30.343    0.00000    0.00028
        622    13   -1.562025   -1.561997    0.000028  30.343    0.00000    0.00028
        623    14   -1.562025   -1.562013    0.000011  30.343    0.00000    0.00027
        624    14   -1.562025   -1.562028    0.000004  30.343    0.00000    0.00027
        625    14   -1.562025   -1.562041    0.000016  30.343    0.00000    0.00027
        626    14   -1.562025   -1.562049    0.000024  30.343    0.00000    0.00027
        627    13   -1.562025   -1.562053    0.000028  30.343    0.00000    0.00027
        628    13   -1.562025   -1.562051    0.000027  30.343    0.00000    0.00027
        629    14   -1.562025   -1.562046    0.000021  30.343    0.00000    0.00026
        630    14   -1.562025   -1.562037    0.000012  30.343    0.00000    0.00026
        631    14   -1.562025   -1.562026    0.000002  30.343    0.00000    0.00026
        632    14   -1.562025   -1.562015    0.000009  30.343    0.00000    0.00026
        633    14   -1.562025   -1.562006    0.000019  30.343    0.00000    0.00026
        634    14   -1.562025   -1.561998    0.000026  30.343    0.00000    0.00026
        635    14   -1.562025   -1.561994    0.000031  30.343    0.00000    0.00025
        636    13   -1.562025   -1.561993    0.000032  30.343    0.00000    0.00025
        637    14   -1.562025   -1.561995    0.000030  30.343    0.00000    0.00025
        638    14   -1.562025   -1.561999    0.000025  30.343    0.00000    0.00025
        639    14   -1.562025   -1.562006    0.000019  30.343    0.00000    0.00025
        640    14   -1.562025   -1.562014    0.000011  30.343    0.00000    0.00025
        641    14   -1.562025   -1.562021    0.000004  30.343    0.00000    0.00025
        642    14   -1.562025   -1.562027    0.000002  30.343    0.00000    0.00024
        643    14   -1.562025   -1.562032    0.000007  30.343    0.00000    0.00024
        644    13   -1.562025   -1.562034    0.000009  30.343    0.00000    0.00024
        645    13   -1.562025   -1.562034    0.000010  30.343    0.00000    0.00024
        646    14   -1.562025   -1.562032    0.000008  30.343    0.00000    0.00024
        647    14   -1.562025   -1.562029    0.000004  30.343    0.00000    0.00024
        648    14   -1.562025   -1.562024    0.000001  30.343    0.00000    0.00024
        649    14   -1.562025   -1.562019    0.000006  30.343    0.00000    0.00023
        650    14   -1.562025   -1.562014    0.000011  30.343    0.00000    0.00023
        651    13   -1.562025   -1.562010    0.000015  30.343    0.00000    0.00023
        652    14   -1.562025   -1.562007    0.000017  30.343    0.00000    0.00023
        653    13   -1.562025   -1.562006    0.000018  30.343    0.00000    0.00023
        654    13   -1.562025   -1.562007    0.000018  30.343    0.00000    0.00023
        655    14   -1.562025   -1.562009    0.000016  30.343    0.00000    0.00023
        656    14   -1.562025   -1.562012    0.000013  30.343    0.00000    0.00023
        657    14   -1.562025   -1.562015    0.000010  30.343    0.00000    0.00023
        658    14   -1.562025   -1.562019    0.000006  30.343    0.00000    0.00022
        659    14   -1.562025   -1.562022    0.000003  30.343    0.00000    0.00022
        660    14   -1.562025   -1.562025    0.000000  30.343    0.00000    0.00022
        661    13   -1.562025   -1.562026    0.000001  30.343    0.00000    0.00022
        662    13   -1.562025   -1.562027    0.000002  30.343    0.00000    0.00022
        663    13   -1.562025   -1.562026    0.000001  30.343    0.00000    0.00022
        664    14   -1.562025   -1.562024    0.000000  30.343    0.00000    0.00022
        665    13   -1.562025   -1.562022    0.000003  30.343    0.00000    0.00022
        666    14   -1.562025   -1.562020    0.000005  30.343    0.00000    0.00022
        667    14   -1.562025   -1.562017    0.000007  30.343    0.00000    0.00021
        668    14   -1.562025   -1.562015    0.000009  30.343    0.00000    0.00021
        669    13   -1.562025   -1.562014    0.000011  30.343    0.00000    0.00021
        670    13   -1.562025   -1.562013    0.000012  30.343    0.00000    0.00021
        671    13   -1.562025   -1.562013    0.000012  30.343    0.00000    0.00021
        672    14   -1.562025   -1.562014    0.000011  30.343    0.00000    0.00021
        673    14   -1.562025   -1.562015    0.000009  30.343    0.00000    0.00021
        674    14   -1.562025   -1.562017    0.000008  30.343    0.00000    0.00021
        675    14   -1.562025   -1.562019    0.000006  30.343    0.00000    0.00021
        676    14   -1.562025   -1.562020    0.000004  30.343    0.00000    0.00021
        677    14   -1.562025   -1.562022    0.000003  30.343    0.00000    0.00020
        678    13   -1.562025   -1.562023    0.000002  30.343    0.00000    0.00020
        679    13   -1.562025   -1.562023    0.000002  30.343    0.00000    0.00020
        680    13   -1.562025   -1.562023    0.000002  30.343    0.00000    0.00020
        681    13   -1.562025   -1.562022    0.000003  30.343    0.00000    0.00020
        682    14   -1.562025   -1.562021    0.000004  30.343    0.00000    0.00020
        683    14   -1.562025   -1.562020    0.000005  30.343    0.00000    0.00020
        684    14   -1.562025   -1.562019    0.000006  30.343    0.00000    0.00020
        685    13   -1.562025   -1.562018    0.000007  30.343    0.00000    0.00020
        686    13   -1.562025   -1.562017    0.000008  30.343    0.00000    0.00020
        687    10   -1.562025   -1.562017    0.000008  30.343    0.00000    0.00020
        688    13   -1.562025   -1.562017    0.000008  30.343    0.00000    0.00019
        689    13   -1.562025   -1.562017    0.000008  30.343    0.00000    0.00019
        690    14   -1.562025   -1.562018    0.000007  30.343    0.00000    0.00019
        691    14   -1.562025   -1.562018    0.000006  30.343    0.00000    0.00019
        692    14   -1.562025   -1.562019    0.000006  30.343    0.00000    0.00019
        693    14   -1.562025   -1.562020    0.000005  30.343    0.00000    0.00019
        694    14   -1.562025   -1.562021    0.000004  30.343    0.00000    0.00019
        695    14   -1.562025   -1.562021    0.000004  30.343    0.00000    0.00019
        696    13   -1.562025   -1.562021    0.000003  30.343    0.00000    0.00019
        697    13   -1.562025   -1.562021    0.000003  30.343    0.00000    0.00019
        698    13   -1.562025   -1.562021    0.000004  30.343    0.00000    0.00019
        699    11   -1.562025   -1.562021    0.000004  30.343    0.00000    0.00019
        700    11   -1.562025   -1.562020    0.000004  30.343    0.00000    0.00019
        701    13   -1.562025   -1.562020    0.000005  30.343    0.00000    0.00018
        702    11   -1.562025   -1.562019    0.000005  30.343    0.00000    0.00018
        703    11   -1.562025   -1.562019    0.000006  30.343    0.00000    0.00018
        704    13   -1.562025   -1.562019    0.000006  30.343    0.00000    0.00018
        705    13   -1.562025   -1.562019    0.000006  30.343    0.00000    0.00018
        706    13   -1.562025   -1.562019    0.000006  30.343    0.00000    0.00018
        707    13   -1.562025   -1.562019    0.000006  30.343    0.00000    0.00018
        708    13   -1.562025   -1.562019    0.000005  30.343    0.00000    0.00018
        709    14   -1.562025   -1.562020    0.000005  30.343    0.00000    0.00018
        710    14   -1.562025   -1.562020    0.000005  30.343    0.00000    0.00018
        711    13   -1.562025   -1.562021    0.000004  30.343    0.00000    0.00018
        712    13   -1.562025   -1.562021    0.000004  30.343    0.00000    0.00018
        713    13   -1.562025   -1.562021    0.000004  30.343    0.00000    0.00018
        714    13   -1.562025   -1.562021    0.000004  30.343    0.00000    0.00018
        715    13   -1.562025   -1.562021    0.000004  30.343    0.00000    0.00017
        716    13   -1.562025   -1.562021    0.000004  30.343    0.00000    0.00017
        717    13   -1.562025   -1.562021    0.000004  30.343    0.00000    0.00017
        718    13   -1.562025   -1.562020    0.000004  30.343    0.00000    0.00017
        719    13   -1.562025   -1.562020    0.000005  30.343    0.00000    0.00017
        720    13   -1.562025   -1.562020    0.000005  30.343    0.00000    0.00017
        721    13   -1.562025   -1.562020    0.000005  30.343    0.00000    0.00017
        722    13   -1.562025   -1.562020    0.000005  30.343    0.00000    0.00017
        723    13   -1.562025   -1.562020    0.000005  30.343    0.00000    0.00017
        724    13   -1.562025   -1.562020    0.000005  30.343    0.00000    0.00017
        725    13   -1.562025   -1.562020    0.000005  30.343    0.00000    0.00017
        726    13   -1.562025   -1.562020    0.000004  30.343    0.00000    0.00017
        727    13   -1.562025   -1.562021    0.000004  30.343    0.00000    0.00017
        728    13   -1.562025   -1.562021    0.000004  30.343    0.00000    0.00017
        729    13   -1.562025   -1.562021    0.000004  30.343    0.00000    0.00017
        730    13   -1.562025   -1.562021    0.000004  30.343    0.00000    0.00017
        731    13   -1.562025   -1.562021    0.000004  30.343    0.00000    0.00016
        732    13   -1.562025   -1.562021    0.000004  30.343    0.00000    0.00016
        733    13   -1.562025   -1.562021    0.000004  30.343    0.00000    0.00016
        734    13   -1.562025   -1.562021    0.000004  30.343    0.00000    0.00016
        735    13   -1.562025   -1.562021    0.000004  30.343    0.00000    0.00016
        736    13   -1.562025   -1.562021    0.000004  30.343    0.00000    0.00016
        737    13   -1.562025   -1.562021    0.000004  30.343    0.00000    0.00016
        738    13   -1.562025   -1.562021    0.000004  30.343    0.00000    0.00016
        739    13   -1.562025   -1.562021    0.000004  30.343    0.00000    0.00016
        740    13   -1.562025   -1.562021    0.000004  30.343    0.00000    0.00016
        741    13   -1.562025   -1.562021    0.000004  30.343    0.00000    0.00016
        742    13   -1.562025   -1.562021    0.000004  30.343    0.00000    0.00016
        743    13   -1.562025   -1.562021    0.000004  30.343    0.00000    0.00016
        744    13   -1.562025   -1.562021    0.000004  30.343    0.00000    0.00016
        745    13   -1.562025   -1.562021    0.000004  30.343    0.00000    0.00016
        746    13   -1.562025   -1.562021    0.000004  30.343    0.00000    0.00016
        747    13   -1.562025   -1.562021    0.000004  30.343    0.00000    0.00016
        748    13   -1.562025   -1.562021    0.000004  30.343    0.00000    0.00016
        749    13   -1.562025   -1.562021    0.000004  30.343    0.00000    0.00015
        750    13   -1.562025   -1.562021    0.000004  30.343    0.00000    0.00015
        751    13   -1.562025   -1.562021    0.000004  30.343    0.00000    0.00015
        752    13   -1.562025   -1.562021    0.000004  30.343    0.00000    0.00015
        753    13   -1.562025   -1.562021    0.000004  30.343    0.00000    0.00015
        754    13   -1.562025   -1.562021    0.000004  30.343    0.00000    0.00015
        755    13   -1.562025   -1.562021    0.000004  30.343    0.00000    0.00015
        756    13   -1.562025   -1.562021    0.000004  30.343    0.00000    0.00015
        757    13   -1.562025   -1.562021    0.000004  30.343    0.00000    0.00015
        758    13   -1.562025   -1.562021    0.000004  30.343    0.00000    0.00015
        759    13   -1.562025   -1.562021    0.000004  30.343    0.00000    0.00015
        760    13   -1.562025   -1.562021    0.000004  30.343    0.00000    0.00015
        761    13   -1.562025   -1.562021    0.000004  30.343    0.00000    0.00015
        762    13   -1.562025   -1.562021    0.000004  30.343    0.00000    0.00015
        763    13   -1.562025   -1.562021    0.000003  30.343    0.00000    0.00015
        764    13   -1.562025   -1.562021    0.000003  30.343    0.00000    0.00015
        765    13   -1.562025   -1.562021    0.000003  30.343    0.00000    0.00015
        766    13   -1.562025   -1.562021    0.000003  30.343    0.00000    0.00015
        767    13   -1.562025   -1.562021    0.000003  30.343    0.00000    0.00015
        768    13   -1.562025   -1.562021    0.000003  30.343    0.00000    0.00015
        769    13   -1.562025   -1.562021    0.000003  30.343    0.00000    0.00014
        770    13   -1.562025   -1.562021    0.000003  30.343    0.00000    0.00014
        771    13   -1.562025   -1.562021    0.000003  30.343    0.00000    0.00014
        772    13   -1.562025   -1.562021    0.000003  30.343    0.00000    0.00014
        773    13   -1.562025   -1.562021    0.000003  30.343    0.00000    0.00014
        774    13   -1.562025   -1.562021    0.000003  30.343    0.00000    0.00014
        775    13   -1.562025   -1.562021    0.000003  30.343    0.00000    0.00014
        776    13   -1.562025   -1.562021    0.000003  30.343    0.00000    0.00014
        777    13   -1.562025   -1.562022    0.000003  30.343    0.00000    0.00014
        778    13   -1.562025   -1.562022    0.000003  30.343    0.00000    0.00014
        779    13   -1.562025   -1.562022    0.000003  30.343    0.00000    0.00014
        780    13   -1.562025   -1.562022    0.000003  30.343    0.00000    0.00014
        781    13   -1.562025   -1.562022    0.000003  30.343    0.00000    0.00014
        782    13   -1.562025   -1.562022    0.000003  30.343    0.00000    0.00014
        783    13   -1.562025   -1.562022    0.000003  30.343    0.00000    0.00014
        784    13   -1.562025   -1.562022    0.000003  30.343    0.00000    0.00014
        785    13   -1.562025   -1.562022    0.000003  30.343    0.00000    0.00014
        786    13   -1.562025   -1.562022    0.000003  30.343    0.00000    0.00014
        787    13   -1.562025   -1.562022    0.000003  30.343    0.00000    0.00014
        788    13   -1.562025   -1.562022    0.000003  30.343    0.00000    0.00014
        789    13   -1.562025   -1.562022    0.000003  30.343    0.00000    0.00014
        790    13   -1.562025   -1.562022    0.000003  30.343    0.00000    0.00014
        791    13   -1.562025   -1.562022    0.000003  30.343    0.00000    0.00014
        792    13   -1.562025   -1.562022    0.000003  30.343    0.00000    0.00013
        793    13   -1.562025   -1.562022    0.000003  30.343    0.00000    0.00013
        794    13   -1.562025   -1.562022    0.000003  30.343    0.00000    0.00013
        795    13   -1.562025   -1.562022    0.000003  30.343    0.00000    0.00013
        796    13   -1.562025   -1.562022    0.000003  30.343    0.00000    0.00013
        797    13   -1.562025   -1.562022    0.000003  30.343    0.00000    0.00013
        798    13   -1.562025   -1.562022    0.000003  30.343    0.00000    0.00013
[...]
       1439    13   -1.562025   -1.562025    0.000000   0.011    0.00002    0.00000
       1440    13   -1.562025   -1.562025    0.000000   0.011    0.00002    0.00000
       1441    13   -1.562025   -1.562025    0.000000   0.011    0.00002    0.00000
       1442    13   -1.562025   -1.562025    0.000000   0.011    0.00002    0.00000
       1443    13   -1.562025   -1.562025    0.000000   0.011    0.00002    0.00000
       1444    13   -1.562025   -1.562025    0.000000   0.011    0.00002    0.00000
       1445    13   -1.562025   -1.562025    0.000000   0.011    0.00002    0.00000
       1446    13   -1.562025   -1.562025    0.000000   0.011    0.00002    0.00000
       1447    13   -1.562025   -1.562025    0.000000   0.011    0.00002    0.00000
       1448    13   -1.562025   -1.562025    0.000000   0.011    0.00002    0.00000
       1449    13   -1.562025   -1.562025    0.000000   0.011    0.00002    0.00000
       1450    13   -1.562025   -1.562025    0.000000   0.011    0.00002    0.00000
       1451    13   -1.562025   -1.562025    0.000000   0.011    0.00002    0.00000
       1452    13   -1.562025   -1.562025    0.000000   0.011    0.00002    0.00000
       1453    13   -1.562025   -1.562025    0.000000   0.011    0.00002    0.00000
       1454    13   -1.562025   -1.562025    0.000000   0.011    0.00002    0.00000
       1455    13   -1.562025   -1.562025    0.000000   0.011    0.00002    0.00000
       1456    13   -1.562025   -1.562025    0.000000   0.011    0.00002    0.00000
       1457    13   -1.562025   -1.562025    0.000000   0.011    0.00002    0.00000
       1458    13   -1.562025   -1.562025    0.000000   0.011    0.00002    0.00000
       1459    13   -1.562025   -1.562025    0.000000   0.011    0.00002    0.00000
       1460    13   -1.562025   -1.562025    0.000000   0.011    0.00002    0.00000
       1461    13   -1.562025   -1.562025    0.000000   0.011    0.00001    0.00000
       1462    13   -1.562025   -1.562025    0.000000   0.011    0.00001    0.00000
       1463    13   -1.562025   -1.562025    0.000000   0.011    0.00001    0.00000
       1464    13   -1.562025   -1.562025    0.000000   0.011    0.00001    0.00000
       1465    13   -1.562025   -1.562025    0.000000   0.011    0.00001    0.00000
       1466    13   -1.562025   -1.562025    0.000000   0.011    0.00001    0.00000
       1467    13   -1.562025   -1.562025    0.000000   0.011    0.00001    0.00000
       1468    13   -1.562025   -1.562025    0.000000   0.011    0.00001    0.00000
       1469    13   -1.562025   -1.562025    0.000000   0.011    0.00001    0.00000
       1470    13   -1.562025   -1.562025    0.000000   0.011    0.00001    0.00000
       1471    13   -1.562025   -1.562025    0.000000   0.011    0.00001    0.00000
       1472    13   -1.562025   -1.562025    0.000000   0.011    0.00001    0.00000
       1473    13   -1.562025   -1.562025    0.000000   0.011    0.00001    0.00000
       1474    13   -1.562025   -1.562025    0.000000   0.011    0.00001    0.00000
       1475    13   -1.562025   -1.562025    0.000000   0.011    0.00001    0.00000
       1476    13   -1.562025   -1.562025    0.000000   0.011    0.00001    0.00000
       1477    13   -1.562025   -1.562025    0.000000   0.011    0.00001    0.00000
       1478    13   -1.562025   -1.562025    0.000000   0.011    0.00001    0.00000
       1479    13   -1.562025   -1.562025    0.000000   0.011    0.00001    0.00000
       1480    13   -1.562025   -1.562025    0.000000   0.011    0.00001    0.00000
       1481    13   -1.562025   -1.562025    0.000000   0.011    0.00001    0.00000
       1482    13   -1.562025   -1.562025    0.000000   0.011    0.00001    0.00000
       1483    13   -1.562025   -1.562025    0.000000   0.011    0.00001    0.00000
       1484    13   -1.562025   -1.562025    0.000000   0.011    0.00001    0.00000
       1485    13   -1.562025   -1.562025    0.000000   0.011    0.00001    0.00000
       1486    13   -1.562025   -1.562025    0.000000   0.011    0.00001    0.00000
       1487    13   -1.562025   -1.562025    0.000000   0.011    0.00001    0.00000
       1488    13   -1.562025   -1.562025    0.000000   0.011    0.00001    0.00000
       1489    13   -1.562025   -1.562025    0.000000   0.011    0.00001    0.00000
       1490    13   -1.562025   -1.562025    0.000000   0.011    0.00001    0.00000
       1491    13   -1.562025   -1.562025    0.000000   0.011    0.00001    0.00000
       1492    13   -1.562025   -1.562025    0.000000   0.011    0.00001    0.00000
       1493    13   -1.562025   -1.562025    0.000000   0.011    0.00001    0.00000
       1494    13   -1.562025   -1.562025    0.000000   0.011    0.00001    0.00000
       1495    13   -1.562025   -1.562025    0.000000   0.011    0.00001    0.00000
       1496    13   -1.562025   -1.562025    0.000000   0.011    0.00001    0.00000
       1497    13   -1.562025   -1.562025    0.000000   0.011    0.00001    0.00000
       1498    13   -1.562025   -1.562025    0.000000   0.011    0.00001    0.00000
       1499    13   -1.562025   -1.562025    0.000000   0.011    0.00001    0.00000
       1500    13   -1.562025   -1.562025    0.000000 121.452    0.00001    0.00000
       1501    18   -1.562025   -1.562025    0.000000 121.452    0.00000    0.00124
       1502    14   -1.562025   -1.562049    0.000024 121.452    0.00000    0.00088
       1503    14   -1.562025   -1.562045    0.000020 121.452    0.00000    0.00015
       1504    12   -1.562025   -1.562050    0.000025 121.452    0.00000    0.00041
       1505    15   -1.562025   -1.562066    0.000041 121.452    0.00000    0.00031
       1506    14   -1.562025   -1.562071    0.000046 121.452    0.00000    0.00008
       1507    14   -1.562025   -1.562057    0.000032 121.452    0.00000    0.00014
       1508    14   -1.562025   -1.562034    0.000009 121.452    0.00000    0.00011
       1509    14   -1.562025   -1.562017    0.000008 121.452    0.00000    0.00006
       1510    14   -1.562025   -1.562008    0.000017 121.452    0.00000    0.00008
       1511    14   -1.562025   -1.562005    0.000020 121.452    0.00000    0.00007
       1512    14   -1.562025   -1.562003    0.000022 121.452    0.00000    0.00005
       1513    14   -1.562025   -1.562001    0.000024 121.452    0.00000    0.00004
       1514    15   -1.562025   -1.562000    0.000025 121.452    0.00000    0.00002
       1515    14   -1.562025   -1.562002    0.000023 121.452    0.00000    0.00002
       1516    14   -1.562025   -1.562009    0.000016 121.452    0.00000    0.00003
       1517    15   -1.562025   -1.562018    0.000007 121.452    0.00000    0.00004
       1518    15   -1.562025   -1.562028    0.000003 121.452    0.00000    0.00004
       1519    15   -1.562025   -1.562037    0.000012 121.452    0.00000    0.00003
       1520    15   -1.562025   -1.562043    0.000018 121.452    0.00000    0.00002
       1521    14   -1.562025   -1.562046    0.000021 121.452    0.00000    0.00001
       1522    14   -1.562025   -1.562046    0.000021 121.452    0.00000    0.00002
       1523    13   -1.562025   -1.562044    0.000019 121.452    0.00000    0.00002
       1524    15   -1.562025   -1.562039    0.000014 121.452    0.00000    0.00003
       1525    15   -1.562025   -1.562033    0.000008 121.452    0.00000    0.00003
       1526    15   -1.562025   -1.562026    0.000001 121.452    0.00000    0.00002
       1527    15   -1.562025   -1.562020    0.000005 121.452    0.00000    0.00001
       1528    14   -1.562025   -1.562014    0.000010 121.452    0.00000    0.00001
       1529    14   -1.562025   -1.562011    0.000014 121.452    0.00000    0.00001
       1530    14   -1.562025   -1.562010    0.000015 121.452    0.00000    0.00002
       1531    13   -1.562025   -1.562011    0.000014 121.452    0.00000    0.00002
       1532    15   -1.562025   -1.562013    0.000011 121.452    0.00000    0.00002
       1533    15   -1.562025   -1.562018    0.000007 121.452    0.00000    0.00001
       1534    15   -1.562025   -1.562022    0.000003 121.452    0.00000    0.00001
       1535    15   -1.562025   -1.562027    0.000002 121.452    0.00000    0.00001
       1536    14   -1.562025   -1.562031    0.000006 121.452    0.00000    0.00001
       1537    14   -1.562025   -1.562034    0.000009 121.452    0.00000    0.00001
       1538    14   -1.562025   -1.562036    0.000011 121.452    0.00000    0.00001
       1539    13   -1.562025   -1.562036    0.000011 121.452    0.00000    0.00001
       1540    15   -1.562025   -1.562034    0.000009 121.452    0.00000    0.00001
       1541    15   -1.562025   -1.562032    0.000007 121.452    0.00000    0.00001
       1542    15   -1.562025   -1.562029    0.000004 121.452    0.00000    0.00001
       1543    15   -1.562025   -1.562026    0.000001 121.452    0.00000    0.00001

      v2RDM iterations converged!

      v2RDM total spin [S(S+1)]:             0.500000
    * v2RDM total energy:             -1.562024963333


 # Natural Orbital Occupation Numbers (alpha) #
 Irrep: 1
      1:  0.9999464
      2:  0.9690860
      3:  0.0309676

 Irrep: 2


 # Natural Orbital Occupation Numbers (beta) #
 Irrep: 1
      1:  0.9690324
      2:  0.0309141
      3:  0.0000535

 Irrep: 2


  ==> Iteration count <==

      Microiterations:                   19182
      Macroiterations:                    1544
      Orbital optimization steps:            0

  ==> Wall time <==

      Microiterations:                    0.31 s
      Macroiterations:                    0.27 s
      Orbital optimization:               0.00 s
      Total:                              0.90 s


*** tstop() called on ed4 at Fri Apr  8 14:55:51 2016
Module time:
	user time   =       0.58 seconds =       0.01 minutes
	system time =       0.09 seconds =       0.00 minutes
	total time  =          1 seconds =       0.02 minutes
Total time:
	user time   =       0.64 seconds =       0.01 minutes
	system time =       0.13 seconds =       0.00 minutes
	total time  =          1 seconds =       0.02 minutes

*** tstart() called on ed4
*** at Fri Apr  8 14:55:51 2016


         ---------------------------------------------------------
                                   SCF
            by Justin Turney, Rob Parrish, and Andy Simmonett
                             ROHF Reference
                        1 Threads,    256 MiB Core
         ---------------------------------------------------------

  ==> Geometry <==

    Molecular point group: cs
    Full point group: Cs

    Geometry (in Angstrom), charge = 0, multiplicity = 2:

       Center              X                  Y                   Z               Mass       
    ------------   -----------------  -----------------  -----------------  -----------------
           H          0.666666666667     0.333333333333     0.000000000000     1.007825032070
           H          0.666666666667    -0.666666666667     0.000000000000     1.007825032070
           H         -1.333333333333     0.333333333333     0.000000000000     1.007825032070

  Running in cs symmetry.

  Rotational constants: A =     35.98571  B =      5.83115  C =      5.01802 [cm^-1]
  Rotational constants: A = 1078824.39973  B = 174813.35711  C = 150436.53082 [MHz]
  Nuclear repulsion =    1.030421054995165

  Charge       = 0
  Multiplicity = 2
  Electrons    = 3
  Nalpha       = 2
  Nbeta        = 1

  ==> Algorithm <==

  SCF Algorithm Type is PK.
  DIIS enabled.
  MOM disabled.
  Fractional occupation disabled.
  Guess Type is SAD.
  Energy threshold   = 1.00e-08
  Density threshold  = 1.00e-10
  Integral threshold = 0.00e+00

  ==> Primary Basis <==

  Basis Set: STO-3G
    Number of shells: 3
    Number of basis function: 3
    Number of Cartesian functions: 3
    Spherical Harmonics?: true
    Max angular momentum: 0

  ==> Pre-Iterations <==

   -------------------------------------------------------
    Irrep   Nso     Nmo     Nalpha   Nbeta   Ndocc  Nsocc
   -------------------------------------------------------
     A'         3       3       0       0       0       0
     A"         0       0       0       0       0       0
   -------------------------------------------------------
    Total       3       3       2       1       1       1
   -------------------------------------------------------

  ==> Integral Setup <==

	Batch   1 pq = [       0,       6] index = [             0,21]
  ==> DiskJK: Disk-Based J/K Matrices <==

    J tasked:                  Yes
    K tasked:                  Yes
    wK tasked:                  No
    Memory (MB):               183
    Schwarz Cutoff:          1E-12

  Minimum eigenvalue in the overlap matrix is 5.0189908481E-01.
  Using Symmetric Orthogonalization.
  SCF Guess: Superposition of Atomic Densities via on-the-fly atomic UHF.

  ==> Iterations <==

                        Total Energy        Delta E     RMS |[F,P]|

   @ROHF iter   0:    -1.41417100164035   -1.41417e+00   0.00000e+00 
   @ROHF iter   1:    -0.58141553777446    8.32755e-01   9.35796e-02 
   @ROHF iter   2:    -1.09097542293345   -5.09560e-01   7.86441e-02 DIIS
   @ROHF iter   3:    -1.51925839237199   -4.28283e-01   2.14183e-02 DIIS
   @ROHF iter   4:    -1.52678424699109   -7.52585e-03   2.98101e-03 DIIS
   @ROHF iter   5:    -1.52692269024700   -1.38443e-04   9.26907e-05 DIIS
   @ROHF iter   6:    -1.52692281324262   -1.22996e-07   8.84695e-06 DIIS
   @ROHF iter   7:    -1.52692281438236   -1.13974e-09   4.84250e-07 DIIS
   @ROHF iter   8:    -1.52692281438612   -3.75877e-12   4.35683e-10 DIIS
   @ROHF iter   9:    -1.52692281438612   -1.33227e-15   2.22402e-12 DIIS

  ==> Post-Iterations <==

    Orbital Energies (a.u.)
    -----------------------

    Doubly Occupied:                                                      

       1Ap    -0.490236  

    Singly Occupied:                                                      

       2Ap    -0.064297  

    Virtual:                                                              

       3Ap     0.457501  

    Final Occupation by Irrep:
             Ap   App 
    DOCC [     1,    0 ]
    SOCC [     1,    0 ]

  Energy converged.

  @ROHF Final Energy:    -1.52692281438612

   => Energetics <=

    Nuclear Repulsion Energy =              1.0304210549951651
    One-Electron Energy =                  -3.6846887642415771
    Two-Electron Energy =                   1.1273448948602935
    DFT Exchange-Correlation Energy =       0.0000000000000000
    Empirical Dispersion Energy =           0.0000000000000000
    PCM Polarization Energy =               0.0000000000000000
    EFP Energy =                            0.0000000000000000
    Total Energy =                         -1.5269228143861182

    Alert: EFP and PCM quantities not currently incorporated into SCF psivars.

Properties will be evaluated at   0.000000,   0.000000,   0.000000 Bohr
  ==> Properties <==


Properties computed using the SCF density matrix

  Nuclear Dipole Moment: (a.u.)
     X:     0.0000      Y:     0.0000      Z:     0.0000

  Electronic Dipole Moment: (a.u.)
     X:     0.0228      Y:    -0.0018      Z:     0.0000

  Dipole Moment: (a.u.)
     X:     0.0228      Y:    -0.0018      Z:     0.0000     Total:     0.0229

  Dipole Moment: (Debye)
     X:     0.0579      Y:    -0.0046      Z:     0.0000     Total:     0.0581


  Saving occupied orbitals to File 180.

*** tstop() called on ed4 at Fri Apr  8 14:55:52 2016
Module time:
	user time   =       0.07 seconds =       0.00 minutes
	system time =       0.02 seconds =       0.00 minutes
	total time  =          1 seconds =       0.02 minutes
Total time:
	user time   =       0.75 seconds =       0.01 minutes
	system time =       0.15 seconds =       0.00 minutes
	total time  =          2 seconds =       0.03 minutes

         ---------------------------------------------------------
                                 D E T C I  

                             C. David Sherrill
                             Matt L. Leininger
                               18 June 1999
         ---------------------------------------------------------

Warning: iopen=0,opentype!=closed. Making iopen=1

DETCI PARAMETERS: 
   EX LEVEL      =        3      H0 BLOCKSIZE =      400
   VAL EX LEVEL  =        0      H0 GUESS SIZE=      400
   H0COUPLINGSIZE=        0      H0 COUPLING  =       no
   MAXITER       =      500      NUM PRINT    =       20
   NUM ROOTS     =        1      ICORE        =        1
   PRINT         =        1      FCI          =      yes
   R CONV        = 1.00e-04      MIXED        =      yes
   E CONV        = 1.00e-06      MIXED4       =      yes
   OEI FILE      =       35      R4S          =       no
   REPL OTF      =       no
   TEI FILE      =       72      DIAG METHOD  =      SEM
   PRECONDITIONER= DAVIDSON      UPDATE       = DAVIDSON
   S             =   0.5000      Ms0          =       no
   MAX NUM VECS  =      501
   RESTART       =       no
   GUESS VECTOR  =  H0BLOCK      OPENTYPE     = HIGHSPIN
   REF SYM       =     auto
   COLLAPSE SIZE =        1      HD AVG       = EVANGELISTI
   LSE           =       no      LSE ITER     =        0
   HD OTF        =      yes      NO DFILE     =       no
   MPN           =       no      MPN SCHMIDT  =       no
   ZAPTN         =       no      MPN WIGNER   =       no
   PERT Z        =   1.0000      FOLLOW ROOT  =        0
   NUM THREADS   =        1
   VECS WRITE    =       no      NUM VECS WRITE =      0
   FILTER GUESS  =       no      SF RESTRICT  =       no
   OPDM          =       no      TRANS DENSITY=       no

   FILES         =  50 51 52 53

   EX ALLOW      =  1  1  1 
   STATE AVERAGE =  1(1.00) 

ORBITALS:
   NMO          =        3
   FROZEN CORE  =        0      RESTR CORE   =        0
   FROZEN VIRT  =        0      RESTR VIRT   =        0
   DROPPED CORE =        0      DROPPED VIRT =        0
   EXPLICIT CORE=        0      ORBS IN CI   =        3
   NUM ALP      =        2      NUM BET      =        1
   NUM ALP EXPL =        2      NUM BET EXPL =        1
   IOPEN        =      yes

   DOCC            =   1   0 
   SOCC            =   1   0 

   FROZEN DOCC     =   0   0 
   RESTRICTED DOCC =   0   0 
   ACTIVE          =   3   0 
   RESTRICTED UOCC =   0   0 
   FROZEN UOCC     =   0   0 
         ---------------------------------------------------------


   ==> Setting up CI strings <==

   There are 3 alpha and 3 beta strings
   The CI space requires 9 (9.00E+00) determinants and 1 blocks


   ==> Transforming CI integrals <==

	Presorting SO-basis two-electron integrals.
	Sorting File: SO Ints (nn|nn) nbuckets = 1
	Transforming the one-electron integrals and constructing Fock matrices
	Starting first half-transformation.
	Sorting half-transformed integrals.
	First half integral transformation complete.
	Starting second half-transformation.
	Two-electron integral transformation complete.

*** H0 Block Eigenvalue =  -1.56202496

Find the roots by the Simultaneous Expansion Method (Block Davidson Method)
Using 1 initial trial vectors
Iter  0  Root  1 =  -1.562024959   Delta_E -2.592E+00   Delta_C  6.651E-16  
Warning: Norm of correction (root 0) is < 1.0E-13
Iter  1  Root  1 =  -1.562024959   Delta_E  0.000E+00   Delta_C  3.155E-15 c

* ROOT 1 CI total energy =  -1.5620249587726


The 9 most important determinants

    1   -0.984351  (    0,    0)  1ApX  2ApA  
    2   -0.173416  (    2,    2)  2ApA  3ApX  
    3    0.026967  (    1,    2)  1ApA  3ApX  
    4    0.009765  (    2,    1)  2ApX  3ApA  
    5   -0.008954  (    1,    1)  1ApA  2ApB  3ApA  
    6   -0.006025  (    0,    1)  1ApA  2ApX  
    7   -0.004764  (    0,    2)  1ApA  2ApA  3ApB  
    8   -0.004190  (    2,    0)  1ApB  2ApA  3ApA  
    9    0.000099  (    1,    0)  1ApX  3ApA  


		 "A good bug is a dead bug" 

			 - Starship Troopers

		 "I didn't write FORTRAN.  That's the problem."

			 - Edward Valeev

	v2RDM vs full CI..................................................PASSED

*** PSI4 exiting successfully. Buy a developer a beer!
