    -----------------------------------------------------------------------
          Psi4: An Open-Source Ab Initio Electronic Structure Package
                              Psi4 0.4.327 Driver

                          Git: Rev {master} 538ca27 

    J. M. Turney, A. C. Simmonett, R. M. Parrish, E. G. Hohenstein,
    F. A. Evangelista, J. T. Fermann, B. J. Mintz, L. A. Burns, J. J. Wilke,
    M. L. Abrams, N. J. Russ, M. L. Leininger, C. L. Janssen, E. T. Seidl,
    W. D. Allen, H. F. Schaefer, R. A. King, E. F. Valeev, C. D. Sherrill,
    and T. D. Crawford, WIREs Comput. Mol. Sci. 2, 556-565 (2012)
    (doi: 10.1002/wcms.93)

                         Additional Contributions by
    A. E. DePrince, U. Bozkaya, A. Yu. Sokolov, D. G. A. Smith, R. Di Remigio,
    R. M. Richard, J. F. Gonthier, H. R. McAlexander, M. Saitow, and
    B. P. Pritchard
    -----------------------------------------------------------------------


    Psi4 started on: Thu May  5 15:51:07 2016

    Process ID:  93646
    PSI4DATADIR: /Users/deprince/psi4/install/debug/share/psi4
    Memory level set to 256.000 MB

  ==> Input File <==

--------------------------------------------------------------------------
sys.path.insert(0, '../../..')
import v2rdm_casscf

# job description
print '        phenylene dinitrene (10,10)/cc-pVDZ'

molecule singlet {
0 1
C      0.00000000    -1.43825841     0.00000000
C      1.26321637    -0.67149862     0.00000000
C      1.26321637     0.67149862     0.00000000
C      0.00000000     1.43825841     0.00000000
C     -1.26321637     0.67149862     0.00000000
C     -1.26321637    -0.67149862     0.00000000
H      2.18678709    -1.24095300     0.00000000
H      2.18678709     1.24095300     0.00000000
H     -2.18678709     1.24095300     0.00000000
H     -2.18678709    -1.24095300     0.00000000
N      0.00000000     2.71003942     0.00000000
N      0.00000000    -2.71003942     0.00000000
}
molecule triplet {
0 3
C      0.00000000    -1.43825841     0.00000000
C      1.26321637    -0.67149862     0.00000000
C      1.26321637     0.67149862     0.00000000
C      0.00000000     1.43825841     0.00000000
C     -1.26321637     0.67149862     0.00000000
C     -1.26321637    -0.67149862     0.00000000
H      2.18678709    -1.24095300     0.00000000
H      2.18678709     1.24095300     0.00000000
H     -2.18678709     1.24095300     0.00000000
H     -2.18678709    -1.24095300     0.00000000
N      0.00000000     2.71003942     0.00000000
N      0.00000000    -2.71003942     0.00000000
}
set {
  basis cc-pvdz
  scf_type df
  d_convergence 1e-8
  maxiter 500
  reference rohf

  restricted_docc [   8,   3,   0,   0,   0,   0,   7,   4 ]
  active          [   0,   1,   1,   3,   1,   3,   0,   1 ]
}

set v2rdm_casscf {

  positivity dqg
  constrain_spin true

  r_convergence  1e-4
  e_convergence  1e-4
  cg_convergence 1e-8

  mu_update_frequency 250
  orbopt_frequency 500

  maxiter 100000

}

# singlet
# from JCTC, with r_convergence = e_convergence = 1e-5
#    * v2RDM total energy:           -338.502362198038

activate(singlet)
ref_singlet = -338.502342367694 # TEST
e_singlet = energy('v2rdm-casscf')

compare_values(e_singlet, ref_singlet, 4, "singlet") # TEST

# triplet
# from JCTC, with r_convergence = e_convergence = 1e-5
#    * v2RDM total energy:           -338.495146818081

activate(triplet)
ref_triplet = -338.495170913420 # TEST
e_triplet = energy('v2rdm-casscf', molecule=triplet)

compare_values(e_triplet, ref_triplet, 4, "triplet") # TEST

--------------------------------------------------------------------------
/Users/deprince/chem/v2rdm_casscf/v2rdm_casscf.so loaded.

*** tstart() called on Eugenes-MacBook-Pro-2.local
*** at Thu May  5 15:51:08 2016


         ---------------------------------------------------------
                                   SCF
            by Justin Turney, Rob Parrish, and Andy Simmonett
                             ROHF Reference
                        1 Threads,    256 MiB Core
         ---------------------------------------------------------

  ==> Geometry <==

    Molecular point group: d2h
    Full point group: D2h

    Geometry (in Angstrom), charge = 0, multiplicity = 1:

       Center              X                  Y                   Z               Mass       
    ------------   -----------------  -----------------  -----------------  -----------------
           C          0.000000000000    -1.438258410000     0.000000000000    12.000000000000
           C          1.263216370000    -0.671498620000     0.000000000000    12.000000000000
           C          1.263216370000     0.671498620000     0.000000000000    12.000000000000
           C         -0.000000000000     1.438258410000     0.000000000000    12.000000000000
           C         -1.263216370000     0.671498620000     0.000000000000    12.000000000000
           C         -1.263216370000    -0.671498620000     0.000000000000    12.000000000000
           H          2.186787090000    -1.240953000000     0.000000000000     1.007825032070
           H          2.186787090000     1.240953000000     0.000000000000     1.007825032070
           H         -2.186787090000     1.240953000000     0.000000000000     1.007825032070
           H         -2.186787090000    -1.240953000000     0.000000000000     1.007825032070
           N         -0.000000000000     2.710039420000     0.000000000000    14.003074004780
           N          0.000000000000    -2.710039420000     0.000000000000    14.003074004780

  Running in d2h symmetry.

  Rotational constants: A =      0.17583  B =      0.05953  C =      0.04447 [cm^-1]
  Rotational constants: A =   5271.38336  B =   1784.63255  C =   1333.25696 [MHz]
  Nuclear repulsion =  301.872746038907337

  Charge       = 0
  Multiplicity = 1
  Electrons    = 54
  Nalpha       = 27
  Nbeta        = 27

  ==> Algorithm <==

  SCF Algorithm Type is DF.
  DIIS enabled.
  MOM disabled.
  Fractional occupation disabled.
  Guess Type is CORE.
  Energy threshold   = 1.00e-08
  Density threshold  = 1.00e-08
  Integral threshold = 0.00e+00

  ==> Primary Basis <==

  Basis Set: CC-PVDZ
    Number of shells: 60
    Number of basis function: 132
    Number of Cartesian functions: 140
    Spherical Harmonics?: true
    Max angular momentum: 2

  ==> Pre-Iterations <==

   -------------------------------------------------------
    Irrep   Nso     Nmo     Nalpha   Nbeta   Ndocc  Nsocc
   -------------------------------------------------------
     Ag        28      28       0       0       0       0
     B1g       20      20       0       0       0       0
     B2g        7       7       0       0       0       0
     B3g       11      11       0       0       0       0
     Au         7       7       0       0       0       0
     B1u       11      11       0       0       0       0
     B2u       28      28       0       0       0       0
     B3u       20      20       0       0       0       0
   -------------------------------------------------------
    Total     132     132      27      27      27       0
   -------------------------------------------------------

  ==> Integral Setup <==

  ==> DFJK: Density-Fitted J/K Matrices <==

    J tasked:                  Yes
    K tasked:                  Yes
    wK tasked:                  No
    OpenMP threads:              1
    Integrals threads:           1
    Memory (MB):               183
    Algorithm:                Core
    Integral Cache:           SAVE
    Schwarz Cutoff:          1E-12
    Fitting Condition:       1E-12

   => Auxiliary Basis Set <=

  Basis Set: 
    Number of shells: 228
    Number of basis function: 652
    Number of Cartesian functions: 748
    Spherical Harmonics?: true
    Max angular momentum: 3

  Minimum eigenvalue in the overlap matrix is 4.3552173832E-04.
  Using Symmetric Orthogonalization.
  SCF Guess: Core (One-Electron) Hamiltonian.

  ==> Iterations <==

                           Total Energy        Delta E     RMS |[F,P]|

    Occupation by irrep:
             Ag   B1g   B2g   B3g    Au   B1u   B2u   B3u 
    DOCC [     8,    4,    0,    1,    0,    1,    8,    5 ]
    SOCC [     0,    0,    0,    0,    0,    0,    0,    0 ]

   @DF-ROHF iter   1:  -286.46116157588182   -2.86461e+02   8.65641e-02 
    Occupation by irrep:
             Ag   B1g   B2g   B3g    Au   B1u   B2u   B3u 
    DOCC [     8,    3,    1,    2,    1,    2,    6,    4 ]
    SOCC [     0,    0,    0,    0,    0,    0,    0,    0 ]

   @DF-ROHF iter   2:  -278.50482063108137    7.95634e+00   9.06079e-02 DIIS
    Occupation by irrep:
             Ag   B1g   B2g   B3g    Au   B1u   B2u   B3u 
    DOCC [     8,    4,    0,    1,    0,    2,    7,    5 ]
    SOCC [     0,    0,    0,    0,    0,    0,    0,    0 ]

   @DF-ROHF iter   3:  -329.51389453440976   -5.10091e+01   4.32493e-02 DIIS
   @DF-ROHF iter   4:  -333.43348407517004   -3.91959e+00   3.97426e-02 DIIS
   @DF-ROHF iter   5:  -336.55498111182141   -3.12150e+00   2.10761e-02 DIIS
   @DF-ROHF iter   6:  -337.51265379419868   -9.57673e-01   1.12176e-02 DIIS
   @DF-ROHF iter   7:  -337.90209709035588   -3.89443e-01   1.74324e-03 DIIS
   @DF-ROHF iter   8:  -337.91897870462361   -1.68816e-02   4.41763e-04 DIIS
   @DF-ROHF iter   9:  -337.92056217821545   -1.58347e-03   1.97320e-04 DIIS
   @DF-ROHF iter  10:  -337.92105836467493   -4.96186e-04   9.41366e-05 DIIS
   @DF-ROHF iter  11:  -337.92111257297307   -5.42083e-05   1.37960e-05 DIIS
   @DF-ROHF iter  12:  -337.92111415239941   -1.57943e-06   3.40811e-06 DIIS
   @DF-ROHF iter  13:  -337.92111425708373   -1.04684e-07   5.61443e-07 DIIS
   @DF-ROHF iter  14:  -337.92111426031937   -3.23564e-09   1.20427e-07 DIIS
   @DF-ROHF iter  15:  -337.92111426039770   -7.83302e-11   1.40170e-08 DIIS
   @DF-ROHF iter  16:  -337.92111426039929   -1.59162e-12   2.65185e-09 DIIS

  ==> Post-Iterations <==

    Orbital Energies (a.u.)
    -----------------------

    Doubly Occupied:                                                      

       1B2u  -15.486208     1Ag   -15.486207     2Ag   -11.374022  
       1B3u  -11.374006     1B1g  -11.372533     2B2u  -11.372533  
       3B2u  -11.266656     3Ag   -11.266644     4Ag    -1.248504  
       4B2u   -1.156260     2B3u   -1.141707     5Ag    -1.086317  
       5B2u   -0.905010     2B1g   -0.894194     6Ag    -0.853124  
       3B3u   -0.725795     7Ag    -0.702182     6B2u   -0.698210  
       4B3u   -0.693041     3B1g   -0.568053     1B1u   -0.539158  
       7B2u   -0.470853     8Ag    -0.470443     1B3g   -0.442725  
       4B1g   -0.310298     5B3u   -0.308102     2B1u   -0.271662  

    Singly Occupied:                                                      

    

    Virtual:                                                              

       1B2g   -0.205317     2B3g    0.085757     1Au     0.095953  
       9Ag     0.150261     6B3u    0.165617     8B2u    0.205101  
       5B1g    0.231289     3B1u    0.247916    10Ag     0.311412  
       3B3g    0.337631     9B2u    0.391252     7B3u    0.397208  
      11Ag     0.410592     6B1g    0.499641    10B2u    0.540323  
      11B2u    0.580066    12Ag     0.586005    13Ag     0.594520  
       4B1u    0.596018     7B1g    0.628549     8B3u    0.632580  
       2B2g    0.634853     9B3u    0.646619     4B3g    0.717870  
       2Au     0.745478    12B2u    0.771777     5B1u    0.775382  
       8B1g    0.775816    14Ag     0.812624    10B3u    0.848858  
       9B1g    0.865120     5B3g    0.868113    13B2u    0.872009  
      14B2u    0.898911    15Ag     0.899057    16Ag     0.928293  
      11B3u    1.017453    15B2u    1.022395    10B1g    1.029372  
       6B1u    1.033547     3B2g    1.042166    17Ag     1.093087  
       4B2g    1.128751    16B2u    1.145274     6B3g    1.158041  
      12B3u    1.160693     7B1u    1.161387    11B1g    1.174809  
       3Au     1.207774    17B2u    1.237933    13B3u    1.269384  
       8B1u    1.303911     7B3g    1.314244    12B1g    1.318612  
      18Ag     1.402859    19Ag     1.433786    13B1g    1.488997  
       4Au     1.641075    14B3u    1.651370    20Ag     1.693697  
       9B1u    1.720060     8B3g    1.732369    18B2u    1.759835  
      21Ag     1.767576    15B3u    1.773756     5B2g    1.786546  
      19B2u    1.834183    20B2u    1.869009    22Ag     1.897108  
      14B1g    1.901390    16B3u    1.913475     6B2g    1.917839  
      10B1u    1.931207     9B3g    1.960677    23Ag     2.010695  
      21B2u    2.038643     5Au     2.070785    22B2u    2.090177  
      17B3u    2.098995    15B1g    2.129259     6Au     2.195739  
      16B1g    2.231021    10B3g    2.244262     7B2g    2.315928  
      17B1g    2.316737    24Ag     2.317326    18B3u    2.324907  
      23B2u    2.340004    24B2u    2.426826    25Ag     2.443575  
       7Au     2.504095    26Ag     2.664339    19B3u    2.685353  
      11B1u    2.730949    18B1g    2.749040    11B3g    2.807270  
      25B2u    2.820218    26B2u    2.904805    27Ag     2.970971  
      27B2u    3.141477    19B1g    3.148679    28Ag     3.154758  
      20B3u    3.164832    20B1g    3.295723    28B2u    3.823008  

    Final Occupation by Irrep:
             Ag   B1g   B2g   B3g    Au   B1u   B2u   B3u 
    DOCC [     8,    4,    0,    1,    0,    2,    7,    5 ]
    SOCC [     0,    0,    0,    0,    0,    0,    0,    0 ]

  Energy converged.

  @DF-ROHF Final Energy:  -337.92111426039929

   => Energetics <=

    Nuclear Repulsion Energy =            301.8727460389073372
    One-Electron Energy =               -1054.6188280195499374
    Two-Electron Energy =                 414.8249677202433645
    DFT Exchange-Correlation Energy =       0.0000000000000000
    Empirical Dispersion Energy =           0.0000000000000000
    PCM Polarization Energy =               0.0000000000000000
    EFP Energy =                            0.0000000000000000
    Total Energy =                       -337.9211142603992926



Properties will be evaluated at   0.000000,   0.000000,   0.000000 Bohr
  ==> Properties <==


Properties computed using the SCF density matrix

  Nuclear Dipole Moment: (a.u.)
     X:     0.0000      Y:     0.0000      Z:     0.0000

  Electronic Dipole Moment: (a.u.)
     X:     0.0000      Y:     0.0000      Z:     0.0000

  Dipole Moment: (a.u.)
     X:     0.0000      Y:     0.0000      Z:     0.0000     Total:     0.0000

  Dipole Moment: (Debye)
     X:     0.0000      Y:     0.0000      Z:     0.0000     Total:     0.0000


  Saving occupied orbitals to File 180.

*** tstop() called on Eugenes-MacBook-Pro-2.local at Thu May  5 15:51:12 2016
Module time:
	user time   =       5.52 seconds =       0.09 minutes
	system time =       0.28 seconds =       0.00 minutes
	total time  =          4 seconds =       0.07 minutes
Total time:
	user time   =       5.52 seconds =       0.09 minutes
	system time =       0.28 seconds =       0.00 minutes
	total time  =          4 seconds =       0.07 minutes

Reading options from the V2RDM_CASSCF block
Calling plugin /Users/deprince/chem/v2rdm_casscf/v2rdm_casscf.so.



*** tstart() called on Eugenes-MacBook-Pro-2.local
*** at Thu May  5 15:51:12 2016



        ****************************************************
        *                                                  *
        *    v2RDM-CASSCF                                  *
        *                                                  *
        *    A variational 2-RDM-driven approach to the    *
        *    active space self-consistent field method     *
        *                                                  *
        ****************************************************


        The following papers should be cited when using v2RDM-CASSCF:

        J. Fosso-Tande, D. R. Nascimento, and A. E. DePrince III,
        Mol. Phys. 114, 423-430 (2015).

            URL: http://dx.doi.org/10.1080/00268976.2015.1078008

        J. Fosso-Tande, T.-S. Nguyen, G. Gidofalvi, and
        A. E. DePrince III, J. Chem. Theory Comput. accepted (2016).

            URL: http://dx.doi.org/10.1021/acs.jctc.6b00190



  ==> Convergence parameters <==

        r_convergence:                      1.000e-04
        e_convergence:                      1.000e-04
        cg_convergence:                     1.000e-08
        maxiter:                               100000
        cg_maxiter:                             10000

  ==> Active space details <==

        Number of frozen core orbitals:             0
        Number of restricted occupied orbitals:    22
        Number of active occupied orbitals:         5
        Number of active virtual orbitals:          5
        Number of restricted virtual orbitals:    100
        Number of frozen virtual orbitals:          0

        Irrep:             Ag, B1g, B2g, B3g,  Au, B1u, B2u, B3u 
 
        frozen_docc     [   0,   0,   0,   0,   0,   0,   0,   0 ]
        restricted_docc [   8,   3,   0,   0,   0,   0,   7,   4 ]
        active          [   0,   1,   1,   3,   1,   3,   0,   1 ]
        restricted_uocc [  20,  16,   6,   8,   6,   8,  21,  15 ]
        frozen_uocc     [   0,   0,   0,   0,   0,   0,   0,   0 ]

  ==> Orbital optimization parameters <==

        1-step algorithm:                       1
        g_convergence:                  1.000e-04
        e_convergence:                  1.000e-08
        maximum iterations:                    20
        frequency:                            500
        active-active rotations:                0
        exact diagonal Hessian:                 0
        number of DIIS vectors:                 0
        print iteration info:                   0

  ==> Memory requirements <==

        D2:                          0.02 mb
        Q2:                          0.02 mb
        G2:                          0.07 mb

        Total number of variables:          15508
        Total number of constraints:        14311
        Total memory requirements:       44.78 mb

    ==> Transform three-electron integrals <==


        Time for integral transformation:     1.93 s


    reference energy:        -337.921114260399
    frozen core energy:      -625.071312552393
    initial 2-RDM energy:    -330.820984327074

      oiter iiter        E(p)        E(d)      E gap)      mu     eps(p)     eps(d)
          0   156 -327.693659  222.083919  549.777578   1.000  227.28405  163.76102
          1    84 -325.026308 -1314.962505  989.936197   1.000   26.08983   89.03503
          2   100 -348.862876 -686.068021  337.205145   1.000   43.25738   12.86905
          3    84 -331.805147 -617.942271  286.137123   1.000   24.95727    6.12907
          4    84 -345.915534 -541.528537  195.613003   1.000   23.63079    4.82767
          5    85 -337.470176 -502.153961  164.683785   1.000   14.28896    3.92769
          6    84 -340.482351 -464.086758  123.604406   1.000   11.58271    3.44045
          7    84 -337.354025 -440.762818  103.408792   1.000    8.18185    3.01907
          8    86 -338.722288 -421.447960   82.725672   1.000    7.40814    2.46382
          9    88 -337.320657 -405.531688   68.211031   1.000    5.26636    2.08998
         10    85 -337.827785 -392.483457   54.655672   1.000    4.89422    1.73920
         11    89 -337.187605 -380.828157   43.640551   1.000    3.65787    1.54590
         12    84 -337.407508 -371.161562   33.754054   1.000    3.33410    1.29651
         13    86 -337.108000 -361.974337   24.866337   1.000    2.80134    1.33655
         14    82 -337.187536 -355.574409   18.386874   1.000    2.43840    1.35130
         15    82 -337.159405 -350.941514   13.782109   1.000    2.08093    1.21930
         16    67 -337.124808 -347.357351   10.232543   1.000    1.70660    1.03836
         17    84 -337.082397 -343.879209    6.796812   1.000    1.44622    1.09405
         18    76 -337.089198 -342.129496    5.040298   1.000    1.27378    0.83753
         19    82 -337.110066 -339.624956    2.514890   1.000    1.10529    0.85882
         20    66 -337.174329 -338.887717    1.713388   1.000    0.91639    0.73749
         21    76 -337.244842 -337.672951    0.428109   1.000    0.71214    0.73510
         22    62 -337.286436 -337.522879    0.236443   1.000    0.62195    0.57839
         23    66 -337.333225 -337.069054    0.264170   1.000    0.43173    0.57490
         24    46 -337.377318 -337.129380    0.247939   1.000    0.29352    0.46989
         25    66 -337.413216 -337.279356    0.133860   1.000    0.22103    0.32505
         26    58 -337.447445 -337.288637    0.158809   1.000    0.18558    0.24104
         27    47 -337.475213 -337.345465    0.129748   1.000    0.16111    0.20220
         28    64 -337.502768 -337.334371    0.168397   1.000    0.14580    0.18049
         29    47 -337.526760 -337.350631    0.176129   1.000    0.13065    0.16571
         30    44 -337.548662 -337.354378    0.194285   1.000    0.11411    0.15767
         31    64 -337.563744 -337.362089    0.201655   1.000    0.10116    0.15102
         32    44 -337.575617 -337.376952    0.198666   1.000    0.09316    0.14455
         33    61 -337.587280 -337.399417    0.187863   1.000    0.08338    0.13970
         34    44 -337.600529 -337.414037    0.186492   1.000    0.07403    0.13511
         35    64 -337.615325 -337.396981    0.218344   1.000    0.06926    0.13092
         36    44 -337.631282 -337.391539    0.239743   1.000    0.06704    0.12762
         37    61 -337.647942 -337.395074    0.252868   1.000    0.06599    0.12450
         38    47 -337.665807 -337.419561    0.246246   1.000    0.06004    0.12132
         39    65 -337.683979 -337.449814    0.234165   1.000    0.05014    0.11893
         40    64 -337.701054 -337.469453    0.231601   1.000    0.04137    0.11656
         41    66 -337.716402 -337.484104    0.232298   1.000    0.03667    0.11372
         42    66 -337.730047 -337.498079    0.231968   1.000    0.03455    0.11061
         43    66 -337.741412 -337.514804    0.226608   1.000    0.03463    0.10760
         44    66 -337.751680 -337.530775    0.220905   1.000    0.03535    0.10513
         45    65 -337.761595 -337.543716    0.217880   1.000    0.03313    0.10337
         46    66 -337.770894 -337.554774    0.216120   1.000    0.02860    0.10199
         47    44 -337.779388 -337.559231    0.220157   1.000    0.02532    0.10055
         48    44 -337.787181 -337.563159    0.224022   1.000    0.02620    0.09876
         49    58 -337.794907 -337.562707    0.232200   1.000    0.02845    0.09680
         50    65 -337.802925 -337.561566    0.241359   1.000    0.02941    0.09507
         51    58 -337.811239 -337.561841    0.249397   1.000    0.02822    0.09378
         52    65 -337.819793 -337.562296    0.257497   1.000    0.02521    0.09286
         53    58 -337.828570 -337.564966    0.263604   1.000    0.02170    0.09202
         54    58 -337.837400 -337.569815    0.267585   1.000    0.01883    0.09103
         55    66 -337.846205 -337.578489    0.267716   1.000    0.01685    0.08981
         56    66 -337.854918 -337.586461    0.268457   1.000    0.01659    0.08844
         57    75 -337.863029 -337.595194    0.267835   1.000    0.01882    0.08682
         58    76 -337.870515 -337.608440    0.262075   1.000    0.02167    0.08482
         59    76 -337.877083 -337.621813    0.255270   1.000    0.02318    0.08330
         60    66 -337.883321 -337.633635    0.249686   1.000    0.02368    0.08236
         61    71 -337.889390 -337.644095    0.245294   1.000    0.02287    0.08176
         62    66 -337.895268 -337.649857    0.245411   1.000    0.02098    0.08125
         63    66 -337.901161 -337.654907    0.246254   1.000    0.01888    0.08059
         64    66 -337.906996 -337.658527    0.248468   1.000    0.01754    0.07973
         65    47 -337.912744 -337.661915    0.250829   1.000    0.01710    0.07872
         66    63 -337.918353 -337.665326    0.253027   1.000    0.01722    0.07772
         67    66 -337.923190 -337.667670    0.255520   1.000    0.02096    0.07660
         68    63 -337.927967 -337.677828    0.250139   1.000    0.02434    0.07529
         69    65 -337.933024 -337.689711    0.243312   1.000    0.02348    0.07443
         70    59 -337.938080 -337.695416    0.242664   1.000    0.02105    0.07385
         71    59 -337.943054 -337.695723    0.247332   1.000    0.01891    0.07329
         72    47 -337.948134 -337.695135    0.252999   1.000    0.01694    0.07279
         73    47 -337.953461 -337.696926    0.256535   1.000    0.01533    0.07228
         74    59 -337.958966 -337.699576    0.259391   1.000    0.01406    0.07172
         75    65 -337.964587 -337.704586    0.260001   1.000    0.01296    0.07114
         76    65 -337.970069 -337.707698    0.262371   1.000    0.01213    0.07057
         77    77 -337.975496 -337.711932    0.263564   1.000    0.01161    0.07003
         78    66 -337.980724 -337.715788    0.264936   1.000    0.01122    0.06949
         79    76 -337.985692 -337.721007    0.264686   1.000    0.01143    0.06903
         80    64 -337.990694 -337.726947    0.263747   1.000    0.01186    0.06858
         81    66 -337.995707 -337.733610    0.262097   1.000    0.01245    0.06814
         82    65 -338.000665 -337.740109    0.260555   1.000    0.01328    0.06763
         83    63 -338.005612 -337.748438    0.257174   1.000    0.01458    0.06703
         84    58 -338.010355 -337.754268    0.256087   1.000    0.01603    0.06638
         85    47 -338.014645 -337.759944    0.254701   1.000    0.01627    0.06574
         86    47 -338.018234 -337.765025    0.253210   1.000    0.01596    0.06515
         87    58 -338.022313 -337.771646    0.250667   1.000    0.01660    0.06453
         88    47 -338.025734 -337.776122    0.249612   1.000    0.01739    0.06394
         89    58 -338.029309 -337.782232    0.247076   1.000    0.01833    0.06339
         90    44 -338.032668 -337.786493    0.246174   1.000    0.01853    0.06289
         91    47 -338.036034 -337.790340    0.245694   1.000    0.01798    0.06244
         92    47 -338.039584 -337.792964    0.246621   1.000    0.01656    0.06200
         93    47 -338.042945 -337.796711    0.246234   1.000    0.01454    0.06153
         94    59 -338.046901 -337.800639    0.246263   1.000    0.01265    0.06107
         95    58 -338.050723 -337.803150    0.247573   1.000    0.01100    0.06065
         96    64 -338.054605 -337.805160    0.249445   1.000    0.01008    0.06025
         97    66 -338.058097 -337.806857    0.251240   1.000    0.00884    0.05989
         98    66 -338.061522 -337.809552    0.251970   1.000    0.00854    0.05953
         99    66 -338.065374 -337.812837    0.252537   1.000    0.00851    0.05916
        100    66 -338.068917 -337.815932    0.252986   1.000    0.00875    0.05876
        101    66 -338.072638 -337.821060    0.251577   1.000    0.00894    0.05832
        102    66 -338.076240 -337.825286    0.250954   1.000    0.00899    0.05795
        103    65 -338.079826 -337.828070    0.251756   1.000    0.00893    0.05764
        104    64 -338.083227 -337.830267    0.252961   1.000    0.00874    0.05734
        105    63 -338.086491 -337.831857    0.254634   1.000    0.00850    0.05704
        106    46 -338.089602 -337.833060    0.256542   1.000    0.00824    0.05673
        107    44 -338.092498 -337.834257    0.258241   1.000    0.00796    0.05642
        108    58 -338.095449 -337.835801    0.259648   1.000    0.00779    0.05612
        109    58 -338.098279 -337.837757    0.260522   1.000    0.00761    0.05582
        110    64 -338.101129 -337.839979    0.261149   1.000    0.00734    0.05551
        111    67 -338.104003 -337.843803    0.260200   1.000    0.00748    0.05515
        112    64 -338.107023 -337.848758    0.258265   1.000    0.00785    0.05469
        113    64 -338.110065 -337.853895    0.256170   1.000    0.00815    0.05427
        114    64 -338.113158 -337.858889    0.254268   1.000    0.00823    0.05393
        115    64 -338.116223 -337.863724    0.252500   1.000    0.00811    0.05362
        116    64 -338.119243 -337.868135    0.251108   1.000    0.00808    0.05330
        117    64 -338.122220 -337.871781    0.250439   1.000    0.00812    0.05294
        118    64 -338.125064 -337.875005    0.250059   1.000    0.00808    0.05259
        119    64 -338.127796 -337.877374    0.250422   1.000    0.00788    0.05227
        120    64 -338.130314 -337.879673    0.250640   1.000    0.00753    0.05198
        121    45 -338.132706 -337.881792    0.250914   1.000    0.00708    0.05170
        122    65 -338.134952 -337.884453    0.250498   1.000    0.00682    0.05136
        123    47 -338.137186 -337.887326    0.249860   1.000    0.00709    0.05093
        124    65 -338.139345 -337.891366    0.247979   1.000    0.00743    0.05047
        125    45 -338.141586 -337.895224    0.246362   1.000    0.00767    0.05013
        126    64 -338.143885 -337.898179    0.245706   1.000    0.00778    0.04988
        127    44 -338.146277 -337.901111    0.245166   1.000    0.00775    0.04967
        128    47 -338.148728 -337.903276    0.245453   1.000    0.00763    0.04944
        129    46 -338.151173 -337.904782    0.246392   1.000    0.00740    0.04918
        130    46 -338.153633 -337.906272    0.247361   1.000    0.00712    0.04890
        131    58 -338.156075 -337.907857    0.248218   1.000    0.00673    0.04862
        132    46 -338.158490 -337.910334    0.248157   1.000    0.00633    0.04837
        133    58 -338.160908 -337.912642    0.248266   1.000    0.00599    0.04813
        134    58 -338.163255 -337.915399    0.247856   1.000    0.00581    0.04790
        135    66 -338.165593 -337.917695    0.247898   1.000    0.00582    0.04768
        136    63 -338.167802 -337.920167    0.247634   1.000    0.00563    0.04745
        137    65 -338.169906 -337.922355    0.247551   1.000    0.00560    0.04722
        138    64 -338.172155 -337.924730    0.247425   1.000    0.00560    0.04698
        139    65 -338.174230 -337.926429    0.247801   1.000    0.00549    0.04676
        140    64 -338.176319 -337.928363    0.247956   1.000    0.00545    0.04652
        141    63 -338.178322 -337.930770    0.247552   1.000    0.00555    0.04627
        142    64 -338.180328 -337.933694    0.246635   1.000    0.00572    0.04600
        143    65 -338.182244 -337.936557    0.245687   1.000    0.00590    0.04573
        144    63 -338.184123 -337.939391    0.244732   1.000    0.00632    0.04547
        145    58 -338.186006 -337.942288    0.243718   1.000    0.00682    0.04521
        146    58 -338.187943 -337.945193    0.242750   1.000    0.00725    0.04494
        147    45 -338.189829 -337.947869    0.241960   1.000    0.00760    0.04467
        148    45 -338.191795 -337.950385    0.241411   1.000    0.00793    0.04439
        149    44 -338.193694 -337.952938    0.240756   1.000    0.00800    0.04408
        150    58 -338.195682 -337.956177    0.239505   1.000    0.00760    0.04378
        151    44 -338.197635 -337.960089    0.237546   1.000    0.00712    0.04351
        152    58 -338.199602 -337.961944    0.237658   1.000    0.00693    0.04323
        153    44 -338.201456 -337.964366    0.237090   1.000    0.00680    0.04295
        154    58 -338.203316 -337.966082    0.237234   1.000    0.00656    0.04268
        155    44 -338.205127 -337.969012    0.236115   1.000    0.00630    0.04242
        156    56 -338.206909 -337.971741    0.235168   1.000    0.00607    0.04216
        157    44 -338.208679 -337.974711    0.233968   1.000    0.00585    0.04190
        158    56 -338.210406 -337.976898    0.233508   1.000    0.00571    0.04164
        159    44 -338.212106 -337.979075    0.233031   1.000    0.00559    0.04138
        160    47 -338.213729 -337.981115    0.232614   1.000    0.00550    0.04112
        161    46 -338.215288 -337.983364    0.231925   1.000    0.00547    0.04085
        162    47 -338.216784 -337.985991    0.230793   1.000    0.00528    0.04059
        163    58 -338.218219 -337.989061    0.229158   1.000    0.00537    0.04033
        164    47 -338.219818 -337.992022    0.227796   1.000    0.00530    0.04006
        165    56 -338.221294 -337.994632    0.226662   1.000    0.00539    0.03979
        166    47 -338.222817 -337.997414    0.225403   1.000    0.00543    0.03951
        167    58 -338.224280 -338.000264    0.224016   1.000    0.00560    0.03923
        168    58 -338.225790 -338.003228    0.222563   1.000    0.00576    0.03893
        169    65 -338.227290 -338.006697    0.220593   1.000    0.00599    0.03862
        170    64 -338.228606 -338.009993    0.218613   1.000    0.00638    0.03828
        171    65 -338.229964 -338.015031    0.214933   1.000    0.00662    0.03794
        172    58 -338.231423 -338.019194    0.212229   1.000    0.00652    0.03762
        173    58 -338.232849 -338.022248    0.210600   1.000    0.00654    0.03730
        174    47 -338.234262 -338.024253    0.210009   1.000    0.00658    0.03699
        175    61 -338.235610 -338.026757    0.208854   1.000    0.00665    0.03670
        176    47 -338.236950 -338.029056    0.207894   1.000    0.00669    0.03641
        177    63 -338.238259 -338.032435    0.205824   1.000    0.00668    0.03612
        178    47 -338.239558 -338.035438    0.204120   1.000    0.00660    0.03584
        179    64 -338.240842 -338.039312    0.201529   1.000    0.00649    0.03557
        180    60 -338.242100 -338.042806    0.199294   1.000    0.00639    0.03528
        181    64 -338.243292 -338.047115    0.196177   1.000    0.00633    0.03499
        182    67 -338.244463 -338.051546    0.192917   1.000    0.00629    0.03470
        183    64 -338.245586 -338.056060    0.189526   1.000    0.00625    0.03440
        184    63 -338.246693 -338.059774    0.186919   1.000    0.00619    0.03411
        185    64 -338.247734 -338.063542    0.184192   1.000    0.00615    0.03382
        186    66 -338.248829 -338.067201    0.181628   1.000    0.00610    0.03352
        187    64 -338.249851 -338.070268    0.179583   1.000    0.00604    0.03322
        188    66 -338.250897 -338.072926    0.177970   1.000    0.00606    0.03293
        189    66 -338.251919 -338.075747    0.176172   1.000    0.00616    0.03261
        190    66 -338.252960 -338.077833    0.175127   1.000    0.00615    0.03232
        191    66 -338.254012 -338.079816    0.174196   1.000    0.00599    0.03205
        192    64 -338.255010 -338.081756    0.173254   1.000    0.00572    0.03180
        193    66 -338.255966 -338.083748    0.172218   1.000    0.00534    0.03156
        194    64 -338.256872 -338.085898    0.170973   1.000    0.00500    0.03134
        195    66 -338.257766 -338.087994    0.169771   1.000    0.00478    0.03109
        196    63 -338.258649 -338.090062    0.168587   1.000    0.00472    0.03083
        197    66 -338.259548 -338.092273    0.167275   1.000    0.00469    0.03056
        198    65 -338.260452 -338.094465    0.165987   1.000    0.00464    0.03032
        199    64 -338.261363 -338.096729    0.164634   1.000    0.00454    0.03010
        200    63 -338.262272 -338.098905    0.163366   1.000    0.00444    0.02988
        201    58 -338.263178 -338.100965    0.162213   1.000    0.00438    0.02967
        202    58 -338.264075 -338.103106    0.160969   1.000    0.00441    0.02945
        203    56 -338.264980 -338.105243    0.159736   1.000    0.00447    0.02922
        204    58 -338.265885 -338.107377    0.158508   1.000    0.00453    0.02899
        205    58 -338.266777 -338.109433    0.157343   1.000    0.00455    0.02876
        206    58 -338.267652 -338.111372    0.156280   1.000    0.00453    0.02854
        207    56 -338.268495 -338.113383    0.155112   1.000    0.00448    0.02833
        208    58 -338.269326 -338.115299    0.154027   1.000    0.00444    0.02813
        209    58 -338.270037 -338.117280    0.152757   1.000    0.00461    0.02792
        210    58 -338.270766 -338.119438    0.151329   1.000    0.00477    0.02772
        211    60 -338.271495 -338.121563    0.149932   1.000    0.00483    0.02751
        212    58 -338.272237 -338.123759    0.148478   1.000    0.00480    0.02730
        213    63 -338.272946 -338.125538    0.147408   1.000    0.00471    0.02710
        214    47 -338.273644 -338.127384    0.146260   1.000    0.00453    0.02690
        215    58 -338.274308 -338.129020    0.145288   1.000    0.00439    0.02671
        216    47 -338.275005 -338.130519    0.144486   1.000    0.00434    0.02652
        217    58 -338.275672 -338.132329    0.143343   1.000    0.00427    0.02634
        218    47 -338.276357 -338.133620    0.142737   1.000    0.00427    0.02615
        219    64 -338.277025 -338.135371    0.141654   1.000    0.00425    0.02597
        220    47 -338.277703 -338.136748    0.140955   1.000    0.00426    0.02579
        221    64 -338.278360 -338.138510    0.139850   1.000    0.00423    0.02562
        222    47 -338.279004 -338.139641    0.139364   1.000    0.00419    0.02544
        223    64 -338.279632 -338.141394    0.138238   1.000    0.00412    0.02528
        224    47 -338.280245 -338.142462    0.137783   1.000    0.00405    0.02511
        225    64 -338.280846 -338.144259    0.136587   1.000    0.00397    0.02494
        226    47 -338.281438 -338.145442    0.135996   1.000    0.00389    0.02478
        227    64 -338.282008 -338.147281    0.134727   1.000    0.00386    0.02462
        228    45 -338.282572 -338.148595    0.133977   1.000    0.00383    0.02446
        229    58 -338.283163 -338.150508    0.132655   1.000    0.00377    0.02429
        230    47 -338.283735 -338.151874    0.131861   1.000    0.00374    0.02413
        231    64 -338.284318 -338.153760    0.130558   1.000    0.00369    0.02397
        232    47 -338.284894 -338.155141    0.129753   1.000    0.00366    0.02380
        233    63 -338.285458 -338.156684    0.128775   1.000    0.00364    0.02364
        234    47 -338.286007 -338.157830    0.128177   1.000    0.00363    0.02347
        235    58 -338.286548 -338.159102    0.127446   1.000    0.00363    0.02331
        236    47 -338.287079 -338.160219    0.126860   1.000    0.00363    0.02315
        237    56 -338.287609 -338.161446    0.126163   1.000    0.00364    0.02299
        238    56 -338.288128 -338.162655    0.125472   1.000    0.00365    0.02284
        239    56 -338.288656 -338.163906    0.124751   1.000    0.00366    0.02268
        240    56 -338.289172 -338.165312    0.123860   1.000    0.00366    0.02253
        241    56 -338.289699 -338.166763    0.122936   1.000    0.00367    0.02238
        242    56 -338.290215 -338.168158    0.122058   1.000    0.00368    0.02223
        243    56 -338.290743 -338.169544    0.121198   1.000    0.00368    0.02208
        244    56 -338.291251 -338.171071    0.120180   1.000    0.00368    0.02194
        245    56 -338.291759 -338.172454    0.119304   1.000    0.00367    0.02179
        246    56 -338.292244 -338.173780    0.118463   1.000    0.00367    0.02165
        247    56 -338.292724 -338.174992    0.117731   1.000    0.00367    0.02152
        248    56 -338.293180 -338.176147    0.117033   1.000    0.00367    0.02138
        249    56 -338.293636 -338.177240    0.116397   1.000    0.00367    0.02125
        250    56 -338.294074 -338.178381    0.115693   0.174    0.00367    0.02111
        251    21 -338.297106 -338.178681    0.118425   0.174    0.01482    0.02086
        252    22 -338.298923 -338.178845    0.120079   0.174    0.01989    0.02041
        253    33 -338.301558 -338.182048    0.119510   0.174    0.02389    0.02001
        254    35 -338.304078 -338.186779    0.117299   0.174    0.02702    0.01960
        255    35 -338.307322 -338.191142    0.116180   0.174    0.02971    0.01919
        256    35 -338.309939 -338.196592    0.113348   0.174    0.03207    0.01877
        257    35 -338.312761 -338.201426    0.111335   0.174    0.03411    0.01835
        258    43 -338.314901 -338.207306    0.107595   0.174    0.03587    0.01793
        259    32 -338.316906 -338.211824    0.105082   0.174    0.03723    0.01752
        260    45 -338.317638 -338.218016    0.099622   0.174    0.03939    0.01712
        261    34 -338.319620 -338.222915    0.096705   0.174    0.03970    0.01674
        262    35 -338.320546 -338.228813    0.091733   0.174    0.04019    0.01639
        263    45 -338.321252 -338.233578    0.087673   0.174    0.03899    0.01606
        264    44 -338.322111 -338.238527    0.083583   0.174    0.03804    0.01576
        265    43 -338.323550 -338.243072    0.080478   0.174    0.03689    0.01546
        266    44 -338.324448 -338.246749    0.077699   0.174    0.03572    0.01517
        267    43 -338.325527 -338.249960    0.075566   0.174    0.03455    0.01488
        268    45 -338.326461 -338.252726    0.073735   0.174    0.03333    0.01461
        269    42 -338.327503 -338.255097    0.072406   0.174    0.03218    0.01434
        270    44 -338.328293 -338.258023    0.070269   0.174    0.03126    0.01405
        271    44 -338.329478 -338.260276    0.069203   0.174    0.03018    0.01377
        272    42 -338.330325 -338.262419    0.067906   0.174    0.02969    0.01349
        273    44 -338.331294 -338.264242    0.067052   0.174    0.02902    0.01321
        274    44 -338.332281 -338.265891    0.066390   0.174    0.02869    0.01292
        275    42 -338.333238 -338.267462    0.065776   0.174    0.02837    0.01265
        276    44 -338.334026 -338.268992    0.065034   0.174    0.02801    0.01239
        277    42 -338.334928 -338.270460    0.064468   0.174    0.02780    0.01214
        278    47 -338.335700 -338.271716    0.063985   0.174    0.02761    0.01189
        279    44 -338.336543 -338.272984    0.063559   0.174    0.02753    0.01164
        280    47 -338.337419 -338.274639    0.062781   0.174    0.02758    0.01139
        281    47 -338.338311 -338.276459    0.061852   0.174    0.02759    0.01115
        282    47 -338.339277 -338.278399    0.060878   0.174    0.02775    0.01091
        283    46 -338.340028 -338.280617    0.059410   0.174    0.02749    0.01068
        284    47 -338.341001 -338.282815    0.058186   0.174    0.02732    0.01046
        285    47 -338.341828 -338.285160    0.056668   0.174    0.02732    0.01025
        286    47 -338.342686 -338.287395    0.055291   0.174    0.02709    0.01005
        287    45 -338.343445 -338.289675    0.053771   0.174    0.02685    0.00986
        288    47 -338.344453 -338.291850    0.052603   0.174    0.02637    0.00969
        289    44 -338.345145 -338.293996    0.051149   0.174    0.02601    0.00952
        290    47 -338.345811 -338.295746    0.050065   0.174    0.02542    0.00936
        291    44 -338.345313 -338.297440    0.047873   0.174    0.02327    0.00921
        292    47 -338.346005 -338.299486    0.046519   0.174    0.02269    0.00905
        293    42 -338.345924 -338.300772    0.045152   0.174    0.02171    0.00890
        294    44 -338.346120 -338.302284    0.043836   0.174    0.02100    0.00876
        295    44 -338.345562 -338.303456    0.042106   0.174    0.02032    0.00862
        296    43 -338.345916 -338.305004    0.040912   0.174    0.01965    0.00849
        297    44 -338.345769 -338.305915    0.039854   0.174    0.01917    0.00835
        298    42 -338.346032 -338.307152    0.038880   0.174    0.01874    0.00822
        299    42 -338.346043 -338.308181    0.037863   0.174    0.01842    0.00809
        300    44 -338.346325 -338.309210    0.037116   0.174    0.01812    0.00797
        301    42 -338.346468 -338.310097    0.036372   0.174    0.01792    0.00785
        302    45 -338.346615 -338.310914    0.035700   0.174    0.01766    0.00773
        303    44 -338.346768 -338.311586    0.035182   0.174    0.01742    0.00762
        304    44 -338.346856 -338.312497    0.034358   0.174    0.01706    0.00750
        305    44 -338.347031 -338.313215    0.033815   0.174    0.01687    0.00739
        306    43 -338.347136 -338.314188    0.032948   0.174    0.01659    0.00728
        307    47 -338.347305 -338.315096    0.032208   0.174    0.01653    0.00716
        308    44 -338.347489 -338.316143    0.031346   0.174    0.01643    0.00705
        309    35 -338.347615 -338.316633    0.030982   0.174    0.01634    0.00693
        310    47 -338.347704 -338.317804    0.029901   0.174    0.01621    0.00681
        311    41 -338.347646 -338.318110    0.029536   0.174    0.01609    0.00669
        312    35 -338.347788 -338.319028    0.028761   0.174    0.01599    0.00657
        313    47 -338.347790 -338.319776    0.028014   0.174    0.01591    0.00645
        314    42 -338.347873 -338.320438    0.027435   0.174    0.01585    0.00632
        315    35 -338.347936 -338.320834    0.027101   0.174    0.01582    0.00619
        316    43 -338.348002 -338.321589    0.026413   0.174    0.01575    0.00606
        317    44 -338.347968 -338.321953    0.026015   0.174    0.01563    0.00592
        318    46 -338.347817 -338.322650    0.025166   0.174    0.01520    0.00578
        319    44 -338.347952 -338.323284    0.024668   0.174    0.01528    0.00563
        320    56 -338.348021 -338.324028    0.023994   0.174    0.01529    0.00548
        321    47 -338.348191 -338.324516    0.023675   0.174    0.01539    0.00533
        322    56 -338.348231 -338.325269    0.022962   0.174    0.01531    0.00518
        323    47 -338.348321 -338.325662    0.022658   0.174    0.01530    0.00503
        324    61 -338.348391 -338.326565    0.021825   0.174    0.01536    0.00488
        325    44 -338.348454 -338.327090    0.021364   0.174    0.01535    0.00473
        326    56 -338.348522 -338.327999    0.020523   0.174    0.01540    0.00457
        327    56 -338.348538 -338.328568    0.019970   0.174    0.01538    0.00441
        328    58 -338.348682 -338.329301    0.019381   0.174    0.01538    0.00425
        329    56 -338.348653 -338.329969    0.018684   0.174    0.01537    0.00409
        330    64 -338.348724 -338.330576    0.018147   0.174    0.01536    0.00393
        331    56 -338.348766 -338.331304    0.017462   0.174    0.01535    0.00378
        332    64 -338.348810 -338.331963    0.016847   0.174    0.01534    0.00363
        333    56 -338.348948 -338.332804    0.016143   0.174    0.01534    0.00348
        334    64 -338.348587 -338.333485    0.015102   0.174    0.01500    0.00333
        335    64 -338.348492 -338.334437    0.014056   0.174    0.01500    0.00319
        336    64 -338.348575 -338.335161    0.013414   0.174    0.01492    0.00305
        337    64 -338.348557 -338.335827    0.012730   0.174    0.01483    0.00291
        338    64 -338.348591 -338.336326    0.012265   0.174    0.01463    0.00279
        339    64 -338.348455 -338.336831    0.011624   0.174    0.01405    0.00267
        340    64 -338.348354 -338.337316    0.011038   0.174    0.01360    0.00255
        341    67 -338.348337 -338.337889    0.010447   0.174    0.01329    0.00245
        342    64 -338.348270 -338.338458    0.009812   0.174    0.01293    0.00235
        343    66 -338.348308 -338.339080    0.009228   0.174    0.01265    0.00226
        344    66 -338.348290 -338.339673    0.008617   0.174    0.01237    0.00218
        345    66 -338.348319 -338.340278    0.008041   0.174    0.01211    0.00211
        346    66 -338.348245 -338.340859    0.007386   0.174    0.01169    0.00205
        347    65 -338.348280 -338.341408    0.006872   0.174    0.01148    0.00198
        348    65 -338.348269 -338.341859    0.006411   0.174    0.01123    0.00192
        349    64 -338.348256 -338.342172    0.006084   0.174    0.01100    0.00187
        350    64 -338.348217 -338.342445    0.005772   0.174    0.01073    0.00181
        351    64 -338.348170 -338.342683    0.005487   0.174    0.01045    0.00176
        352    64 -338.348123 -338.342935    0.005187   0.174    0.01017    0.00171
        353    64 -338.348065 -338.343121    0.004944   0.174    0.00989    0.00166
        354    64 -338.348015 -338.343348    0.004668   0.174    0.00963    0.00162
        355    64 -338.347975 -338.343642    0.004333   0.174    0.00940    0.00157
        356    64 -338.347932 -338.343871    0.004060   0.174    0.00919    0.00152
        357    64 -338.347885 -338.344111    0.003773   0.174    0.00900    0.00147
        358    64 -338.347842 -338.344367    0.003475   0.174    0.00884    0.00143
        359    64 -338.347812 -338.344618    0.003194   0.174    0.00869    0.00138
        360    64 -338.347775 -338.344872    0.002903   0.174    0.00854    0.00133
        361    64 -338.347726 -338.345094    0.002632   0.174    0.00840    0.00129
        362    64 -338.347670 -338.345287    0.002383   0.174    0.00827    0.00125
        363    66 -338.347617 -338.345444    0.002174   0.174    0.00813    0.00120
        364    64 -338.347566 -338.345548    0.002018   0.174    0.00799    0.00116
        365    66 -338.347540 -338.345591    0.001949   0.174    0.00785    0.00113
        366    64 -338.347490 -338.345626    0.001865   0.174    0.00773    0.00109
        367    66 -338.347489 -338.345638    0.001851   0.174    0.00760    0.00105
        368    63 -338.347472 -338.345667    0.001805   0.174    0.00748    0.00101
        369    66 -338.347483 -338.345684    0.001799   0.174    0.00736    0.00098
        370    66 -338.347494 -338.345714    0.001781   0.174    0.00724    0.00094
        371    66 -338.347513 -338.345741    0.001773   0.174    0.00711    0.00091
        372    66 -338.347539 -338.345778    0.001762   0.174    0.00700    0.00088
        373    66 -338.347548 -338.345816    0.001731   0.174    0.00688    0.00084
        374    66 -338.347581 -338.345863    0.001718   0.174    0.00677    0.00081
        375    66 -338.347587 -338.345911    0.001676   0.174    0.00666    0.00079
        376    66 -338.347615 -338.345963    0.001652   0.174    0.00655    0.00076
        377    66 -338.347638 -338.346015    0.001623   0.174    0.00643    0.00073
        378    66 -338.347658 -338.346069    0.001589   0.174    0.00633    0.00071
        379    66 -338.347675 -338.346122    0.001552   0.174    0.00622    0.00069
        380    66 -338.347701 -338.346177    0.001524   0.174    0.00612    0.00067
        381    66 -338.347724 -338.346229    0.001495   0.174    0.00602    0.00065
        382    66 -338.347749 -338.346283    0.001465   0.174    0.00592    0.00063
        383    66 -338.347769 -338.346347    0.001422   0.174    0.00582    0.00062
        384    66 -338.347809 -338.346450    0.001359   0.174    0.00572    0.00060
        385    66 -338.347812 -338.346473    0.001339   0.174    0.00564    0.00058
        386    66 -338.347851 -338.346538    0.001312   0.174    0.00554    0.00057
        387    66 -338.347838 -338.346588    0.001251   0.174    0.00547    0.00055
        388    66 -338.347866 -338.346672    0.001194   0.174    0.00539    0.00054
        389    66 -338.347869 -338.346742    0.001127   0.174    0.00532    0.00053
        390    76 -338.347875 -338.346824    0.001051   0.174    0.00526    0.00051
        391    67 -338.347869 -338.346865    0.001004   0.174    0.00520    0.00050
        392    66 -338.347876 -338.346931    0.000945   0.174    0.00514    0.00048
        393    66 -338.347871 -338.346966    0.000905   0.174    0.00508    0.00047
        394    66 -338.347871 -338.347012    0.000859   0.174    0.00502    0.00046
        395    66 -338.347870 -338.347049    0.000821   0.174    0.00497    0.00045
        396    66 -338.347871 -338.347092    0.000778   0.174    0.00491    0.00044
        397    66 -338.347869 -338.347133    0.000735   0.174    0.00486    0.00043
        398    76 -338.347867 -338.347184    0.000683   0.174    0.00481    0.00042
        399    66 -338.347867 -338.347209    0.000658   0.174    0.00476    0.00041
        400    76 -338.347862 -338.347268    0.000594   0.174    0.00471    0.00040
        401    66 -338.347867 -338.347281    0.000586   0.174    0.00467    0.00039
        402    76 -338.347860 -338.347340    0.000520   0.174    0.00462    0.00039
        403    66 -338.347867 -338.347347    0.000520   0.174    0.00457    0.00038
        404    71 -338.347863 -338.347404    0.000459   0.174    0.00453    0.00037
        405    66 -338.347865 -338.347406    0.000460   0.174    0.00449    0.00036
        406    66 -338.347863 -338.347452    0.000412   0.174    0.00444    0.00036
        407    76 -338.347859 -338.347474    0.000384   0.174    0.00440    0.00035
        408    76 -338.347860 -338.347499    0.000360   0.174    0.00435    0.00034
        409    66 -338.347857 -338.347516    0.000340   0.174    0.00431    0.00034
        410    76 -338.347853 -338.347553    0.000299   0.174    0.00427    0.00033
        411    76 -338.347851 -338.347563    0.000288   0.174    0.00423    0.00033
        412    76 -338.347848 -338.347590    0.000258   0.174    0.00418    0.00032
        413    76 -338.347846 -338.347602    0.000244   0.174    0.00414    0.00032
        414    76 -338.347845 -338.347621    0.000224   0.174    0.00410    0.00031
        415    76 -338.347845 -338.347632    0.000213   0.174    0.00406    0.00031
        416    76 -338.347844 -338.347646    0.000199   0.174    0.00401    0.00030
        417    76 -338.347845 -338.347655    0.000189   0.174    0.00397    0.00030
        418    76 -338.347849 -338.347665    0.000184   0.174    0.00393    0.00029
        419    76 -338.347850 -338.347673    0.000177   0.174    0.00389    0.00029
        420    76 -338.347856 -338.347681    0.000175   0.174    0.00385    0.00029
        421    76 -338.347858 -338.347688    0.000170   0.174    0.00381    0.00028
        422    76 -338.347866 -338.347694    0.000172   0.174    0.00378    0.00028
        423    76 -338.347868 -338.347701    0.000167   0.174    0.00374    0.00027
        424    76 -338.347876 -338.347707    0.000169   0.174    0.00370    0.00027
        425    76 -338.347881 -338.347713    0.000168   0.174    0.00366    0.00027
        426    76 -338.347888 -338.347719    0.000169   0.174    0.00363    0.00026
        427    76 -338.347896 -338.347725    0.000172   0.174    0.00359    0.00026
        428    76 -338.347900 -338.347731    0.000169   0.174    0.00355    0.00026
        429    76 -338.347909 -338.347736    0.000173   0.174    0.00352    0.00026
        430    76 -338.347914 -338.347747    0.000167   0.174    0.00349    0.00025
        431    76 -338.347931 -338.347794    0.000137   0.174    0.00348    0.00025
        432    76 -338.347946 -338.347800    0.000146   0.174    0.00348    0.00025
        433    76 -338.347961 -338.347815    0.000145   0.174    0.00348    0.00024
        434    76 -338.347976 -338.347811    0.000165   0.174    0.00347    0.00024
        435    76 -338.347981 -338.347809    0.000172   0.174    0.00344    0.00024
        436    76 -338.347991 -338.347800    0.000190   0.174    0.00340    0.00024
        437    76 -338.347994 -338.347796    0.000198   0.174    0.00336    0.00023
        438    76 -338.347998 -338.347792    0.000207   0.174    0.00332    0.00023
        439    76 -338.348002 -338.347791    0.000212   0.174    0.00328    0.00023
        440    76 -338.348007 -338.347790    0.000218   0.174    0.00325    0.00023
        441    76 -338.348013 -338.347790    0.000223   0.174    0.00322    0.00022
        442    76 -338.348020 -338.347789    0.000231   0.174    0.00320    0.00022
        443    80 -338.348024 -338.347786    0.000238   0.174    0.00318    0.00022
        444    76 -338.348033 -338.347789    0.000244   0.174    0.00315    0.00022
        445    76 -338.348037 -338.347786    0.000251   0.174    0.00313    0.00021
        446    76 -338.348043 -338.347787    0.000257   0.174    0.00310    0.00021
        447    80 -338.348045 -338.347783    0.000261   0.174    0.00307    0.00021
        448    76 -338.348052 -338.347788    0.000264   0.174    0.00305    0.00021
        449    76 -338.348054 -338.347787    0.000267   0.174    0.00302    0.00021
        450    76 -338.348059 -338.347791    0.000268   0.174    0.00299    0.00020
        451    82 -338.348061 -338.347789    0.000272   0.174    0.00297    0.00020
        452    76 -338.348066 -338.347798    0.000267   0.174    0.00295    0.00020
        453    76 -338.348069 -338.347797    0.000272   0.174    0.00292    0.00020
        454    76 -338.348073 -338.347802    0.000271   0.174    0.00290    0.00020
        455    82 -338.348075 -338.347799    0.000276   0.174    0.00288    0.00020
        456    76 -338.348079 -338.347808    0.000272   0.174    0.00286    0.00019
        457    76 -338.348082 -338.347804    0.000278   0.174    0.00284    0.00019
        458    80 -338.348083 -338.347805    0.000278   0.174    0.00282    0.00019
        459    80 -338.348087 -338.347806    0.000281   0.174    0.00279    0.00019
        460    82 -338.348090 -338.347804    0.000286   0.174    0.00277    0.00019
        461    76 -338.348092 -338.347808    0.000284   0.174    0.00275    0.00019
        462    82 -338.348093 -338.347800    0.000292   0.174    0.00273    0.00018
        463    76 -338.348096 -338.347808    0.000289   0.174    0.00271    0.00018
        464    76 -338.348097 -338.347800    0.000297   0.174    0.00269    0.00018
        465    76 -338.348099 -338.347802    0.000297   0.174    0.00267    0.00018
        466    82 -338.348100 -338.347794    0.000306   0.174    0.00265    0.00018
        467    78 -338.348102 -338.347798    0.000304   0.174    0.00263    0.00018
        468    82 -338.348102 -338.347790    0.000313   0.174    0.00261    0.00018
        469    76 -338.348104 -338.347796    0.000309   0.174    0.00260    0.00018
        470    82 -338.348105 -338.347786    0.000320   0.174    0.00258    0.00017
        471    76 -338.348108 -338.347796    0.000313   0.174    0.00256    0.00017
        472    82 -338.348109 -338.347782    0.000327   0.174    0.00255    0.00017
        473    76 -338.348112 -338.347789    0.000323   0.174    0.00253    0.00017
        474    82 -338.348114 -338.347773    0.000341   0.174    0.00251    0.00017
        475    76 -338.348116 -338.347779    0.000337   0.174    0.00250    0.00017
        476    82 -338.348115 -338.347764    0.000351   0.174    0.00248    0.00017
        477    76 -338.348118 -338.347772    0.000345   0.174    0.00246    0.00017
        478    82 -338.348116 -338.347759    0.000357   0.174    0.00244    0.00016
        479    76 -338.348118 -338.347773    0.000345   0.174    0.00243    0.00016
        480    82 -338.348119 -338.347764    0.000355   0.174    0.00241    0.00016
        481    76 -338.348122 -338.347781    0.000341   0.174    0.00240    0.00016
        482    76 -338.348121 -338.347767    0.000354   0.174    0.00238    0.00016
        483    76 -338.348121 -338.347769    0.000353   0.174    0.00237    0.00016
        484    76 -338.348121 -338.347760    0.000361   0.174    0.00235    0.00016
        485    76 -338.348120 -338.347756    0.000364   0.174    0.00234    0.00016
        486    76 -338.348120 -338.347750    0.000370   0.174    0.00232    0.00016
        487    78 -338.348120 -338.347743    0.000378   0.174    0.00230    0.00015
        488    76 -338.348118 -338.347743    0.000375   0.174    0.00229    0.00015
        489    76 -338.348117 -338.347736    0.000381   0.174    0.00227    0.00015
        490    76 -338.348118 -338.347735    0.000383   0.174    0.00226    0.00015
        491    78 -338.348117 -338.347730    0.000387   0.174    0.00224    0.00015
        492    76 -338.348116 -338.347730    0.000386   0.174    0.00223    0.00015
        493    76 -338.348115 -338.347726    0.000390   0.174    0.00221    0.00015
        494    76 -338.348115 -338.347725    0.000390   0.174    0.00220    0.00015
        495    78 -338.348115 -338.347721    0.000394   0.174    0.00218    0.00015
        496    76 -338.348114 -338.347721    0.000393   0.174    0.00217    0.00015
        497    76 -338.348112 -338.347717    0.000396   0.174    0.00216    0.00015
        498    82 -338.348112 -338.347712    0.000400   0.174    0.00214    0.00014
        499    76 -338.348112 -338.347716    0.000395   0.174    0.00213    0.00014

        ==> Orbital Optimization <==

            Orbital Optimization did not converge in  20 iterations 
            Total energy change: -1.372776e-01
            Final gradient norm: 5.784773e-03

        500    82 -338.485389 -338.403253    0.082136   2.575    0.00212    0.00014
        501   164 -338.506264 -338.268215    0.238050   2.575    0.03962    0.12219
        502    76 -338.514283 -338.448899    0.065384   2.575    0.03665    0.06742
        503    74 -338.513127 -338.559143    0.046017   2.575    0.02301    0.06679
        504    77 -338.505979 -338.587321    0.081342   2.575    0.01951    0.06164
        505    82 -338.496456 -338.558848    0.062393   2.575    0.01692    0.05596
        506    92 -338.490325 -338.554327    0.064002   2.575    0.01511    0.04677
        507    84 -338.488351 -338.562072    0.073721   2.575    0.01269    0.04242
        508    84 -338.489202 -338.575196    0.085994   2.575    0.01072    0.03893
        509    83 -338.490914 -338.577128    0.086214   2.575    0.00994    0.03641
        510    78 -338.492078 -338.574975    0.082897   2.575    0.00915    0.03414
        511    78 -338.492526 -338.566226    0.073700   2.575    0.00831    0.03238
        512    76 -338.492527 -338.560858    0.068331   2.575    0.00812    0.03034
        513    78 -338.492352 -338.550774    0.058423   2.575    0.00840    0.02812
        514    76 -338.492056 -338.540607    0.048551   2.575    0.00842    0.02622
        515    76 -338.491815 -338.529049    0.037234   2.575    0.00806    0.02502
        516    82 -338.491560 -338.519434    0.027874   2.575    0.00725    0.02418
        517    82 -338.491555 -338.511472    0.019917   2.575    0.00678    0.02333
        518    77 -338.491505 -338.505170    0.013664   2.575    0.00610    0.02252
        519    76 -338.491566 -338.502745    0.011179   2.575    0.00561    0.02180
        520    76 -338.491697 -338.504588    0.012891   2.575    0.00511    0.02116
        521    76 -338.491906 -338.509940    0.018034   2.575    0.00474    0.02048
        522    76 -338.492236 -338.516982    0.024747   2.575    0.00442    0.01990
        523    76 -338.492580 -338.525157    0.032577   2.575    0.00418    0.01945
        524    75 -338.492896 -338.532616    0.039720   2.575    0.00400    0.01907
        525    66 -338.493142 -338.538779    0.045637   2.575    0.00390    0.01872
        526    66 -338.493321 -338.542995    0.049674   2.575    0.00384    0.01835
        527    67 -338.493418 -338.545011    0.051593   2.575    0.00379    0.01792
        528    67 -338.493434 -338.545493    0.052059   2.575    0.00374    0.01747
        529    67 -338.493408 -338.544860    0.051452   2.575    0.00363    0.01704
        530    76 -338.493338 -338.543905    0.050567   2.575    0.00347    0.01666
        531    76 -338.493258 -338.542815    0.049557   2.575    0.00327    0.01635
        532    77 -338.493170 -338.542340    0.049170   2.575    0.00305    0.01607
        533    76 -338.493077 -338.541298    0.048221   2.575    0.00282    0.01583
        534    78 -338.492999 -338.540767    0.047768   2.575    0.00262    0.01560
        535    82 -338.492935 -338.540317    0.047382   2.575    0.00246    0.01537
        536    82 -338.492903 -338.540268    0.047365   2.575    0.00232    0.01516
        537    82 -338.492897 -338.540374    0.047477   2.575    0.00224    0.01498
        538    82 -338.492920 -338.541309    0.048389   2.575    0.00223    0.01479
        539    82 -338.492952 -338.541201    0.048249   2.575    0.00225    0.01461
        540    76 -338.492998 -338.541555    0.048557   2.575    0.00230    0.01443
        541    78 -338.493045 -338.541365    0.048320   2.575    0.00233    0.01425
        542    76 -338.493090 -338.541301    0.048211   2.575    0.00232    0.01408
        543    77 -338.493122 -338.541047    0.047925   2.575    0.00224    0.01393
        544    75 -338.493149 -338.541280    0.048131   2.575    0.00214    0.01376
        545    77 -338.493138 -338.540584    0.047446   2.575    0.00198    0.01360
        546    77 -338.493118 -338.540350    0.047233   2.575    0.00182    0.01345
        547    77 -338.493081 -338.539923    0.046842   2.575    0.00167    0.01330
        548    77 -338.493048 -338.539618    0.046569   2.575    0.00155    0.01317
        549    82 -338.493020 -338.539281    0.046261   2.575    0.00145    0.01304
        550    82 -338.492998 -338.539009    0.046011   2.575    0.00137    0.01291
        551    82 -338.492990 -338.538518    0.045529   2.575    0.00131    0.01278
        552    82 -338.492993 -338.537983    0.044990   2.575    0.00125    0.01266
        553    82 -338.493008 -338.537295    0.044288   2.575    0.00121    0.01254
        554    82 -338.493030 -338.536648    0.043618   2.575    0.00117    0.01242
        555    82 -338.493059 -338.535814    0.042755   2.575    0.00115    0.01230
        556    82 -338.493092 -338.535042    0.041950   2.575    0.00112    0.01219
        557    82 -338.493130 -338.534267    0.041137   2.575    0.00111    0.01207
        558    82 -338.493172 -338.533580    0.040409   2.575    0.00109    0.01197
        559    82 -338.493217 -338.532989    0.039772   2.575    0.00106    0.01186
        560    82 -338.493265 -338.532465    0.039200   2.575    0.00104    0.01176
        561    82 -338.493313 -338.531956    0.038642   2.575    0.00102    0.01166
        562    82 -338.493362 -338.531458    0.038096   2.575    0.00099    0.01157
        563    82 -338.493409 -338.530972    0.037563   2.575    0.00096    0.01147
        564    82 -338.493455 -338.530512    0.037057   2.575    0.00093    0.01138
        565    82 -338.493500 -338.530053    0.036554   2.575    0.00091    0.01129
        566    82 -338.493544 -338.529591    0.036046   2.575    0.00088    0.01121
        567    82 -338.493589 -338.529136    0.035547   2.575    0.00085    0.01112
        568    82 -338.493634 -338.528688    0.035054   2.575    0.00082    0.01104
        569    82 -338.493680 -338.528243    0.034563   2.575    0.00080    0.01096
        570    83 -338.493725 -338.527804    0.034079   2.575    0.00077    0.01088
        571    78 -338.493772 -338.527373    0.033600   2.575    0.00074    0.01080
        572    82 -338.493819 -338.526980    0.033161   2.575    0.00072    0.01072
        573    78 -338.493868 -338.526578    0.032710   2.575    0.00069    0.01065
        574    78 -338.493918 -338.526244    0.032326   2.575    0.00067    0.01058
        575    78 -338.493969 -338.525917    0.031948   2.575    0.00064    0.01051
        576    78 -338.494020 -338.525639    0.031619   2.575    0.00062    0.01044
        577    78 -338.494072 -338.525386    0.031314   2.575    0.00059    0.01037
        578    78 -338.494123 -338.525165    0.031042   2.575    0.00056    0.01030
        579    78 -338.494175 -338.525016    0.030841   2.575    0.00054    0.01024
        580    78 -338.494226 -338.524882    0.030656   2.575    0.00051    0.01017
        581    78 -338.494275 -338.524740    0.030465   2.575    0.00049    0.01011
        582    78 -338.494322 -338.524586    0.030264   2.575    0.00047    0.01005
        583    76 -338.494368 -338.524420    0.030052   2.575    0.00045    0.00998
        584    78 -338.494411 -338.524243    0.029832   2.575    0.00043    0.00992
        585    78 -338.494453 -338.524125    0.029672   2.575    0.00042    0.00986
        586    78 -338.494492 -338.524056    0.029563   2.575    0.00040    0.00980
        587    78 -338.494531 -338.523949    0.029417   2.575    0.00039    0.00974
        588    78 -338.494571 -338.523790    0.029219   2.575    0.00037    0.00968
        589    76 -338.494613 -338.523552    0.028939   2.575    0.00035    0.00963
        590    78 -338.494654 -338.523295    0.028640   2.575    0.00033    0.00957
        591    76 -338.494697 -338.522965    0.028267   2.575    0.00032    0.00952
        592    76 -338.494739 -338.522656    0.027918   2.575    0.00031    0.00947
        593    76 -338.494779 -338.522373    0.027594   2.575    0.00030    0.00941
        594    76 -338.494817 -338.522096    0.027279   2.575    0.00030    0.00936
        595    77 -338.494854 -338.521854    0.027000   2.575    0.00029    0.00931
        596    76 -338.494889 -338.521639    0.026751   2.575    0.00028    0.00926
        597    76 -338.494924 -338.521453    0.026529   2.575    0.00027    0.00921
        598    76 -338.494958 -338.521290    0.026331   2.575    0.00026    0.00916
        599    76 -338.494993 -338.521144    0.026151   2.575    0.00026    0.00911
        600    76 -338.495027 -338.521009    0.025982   2.575    0.00025    0.00906
        601    76 -338.495061 -338.520877    0.025816   2.575    0.00024    0.00902
        602    74 -338.495095 -338.520743    0.025648   2.575    0.00023    0.00897
        603    76 -338.495129 -338.520603    0.025475   2.575    0.00022    0.00892
        604    78 -338.495162 -338.520452    0.025290   2.575    0.00021    0.00888
        605    77 -338.495195 -338.520289    0.025093   2.575    0.00021    0.00883
        606    78 -338.495229 -338.520113    0.024884   2.575    0.00020    0.00879
        607    77 -338.495262 -338.519926    0.024665   2.575    0.00020    0.00875
        608    78 -338.495294 -338.519731    0.024437   2.575    0.00019    0.00870
        609    77 -338.495326 -338.519531    0.024204   2.575    0.00019    0.00866
        610    77 -338.495359 -338.519330    0.023971   2.575    0.00019    0.00862
        611    76 -338.495391 -338.519133    0.023743   2.575    0.00019    0.00858
        612    76 -338.495422 -338.518944    0.023521   2.575    0.00019    0.00854
        613    77 -338.495454 -338.518765    0.023312   2.575    0.00018    0.00849
        614    76 -338.495485 -338.518599    0.023114   2.575    0.00018    0.00845
        615    77 -338.495516 -338.518447    0.022931   2.575    0.00018    0.00841
        616    76 -338.495546 -338.518307    0.022762   2.575    0.00018    0.00837
        617    77 -338.495576 -338.518179    0.022603   2.575    0.00018    0.00834
        618    76 -338.495605 -338.518058    0.022453   2.575    0.00018    0.00830
        619    76 -338.495634 -338.517941    0.022307   2.575    0.00018    0.00826
        620    78 -338.495662 -338.517826    0.022163   2.575    0.00018    0.00822
        621    76 -338.495690 -338.517708    0.022018   2.575    0.00018    0.00818
        622    78 -338.495718 -338.517587    0.021870   2.575    0.00018    0.00814
        623    76 -338.495745 -338.517461    0.021716   2.575    0.00018    0.00811
        624    76 -338.495772 -338.517330    0.021558   2.575    0.00018    0.00807
        625    76 -338.495798 -338.517195    0.021397   2.575    0.00017    0.00803
        626    82 -338.495824 -338.517056    0.021233   2.575    0.00017    0.00800
        627    76 -338.495849 -338.516918    0.021069   2.575    0.00017    0.00796
        628    82 -338.495874 -338.516782    0.020907   2.575    0.00017    0.00793
        629    76 -338.495899 -338.516646    0.020747   2.575    0.00017    0.00789
        630    82 -338.495924 -338.516518    0.020594   2.575    0.00017    0.00785
        631    76 -338.495949 -338.516391    0.020442   2.575    0.00017    0.00782
        632    82 -338.495973 -338.516274    0.020301   2.575    0.00017    0.00779
        633    78 -338.495997 -338.516156    0.020159   2.575    0.00017    0.00775
        634    82 -338.496021 -338.516048    0.020027   2.575    0.00017    0.00772
        635    76 -338.496045 -338.515937    0.019892   2.575    0.00017    0.00768
        636    82 -338.496069 -338.515835    0.019767   2.575    0.00017    0.00765
        637    78 -338.496092 -338.515727    0.019635   2.575    0.00017    0.00762
        638    82 -338.496115 -338.515628    0.019513   2.575    0.00017    0.00758
        639    78 -338.496138 -338.515522    0.019384   2.575    0.00017    0.00755
        640    78 -338.496161 -338.515457    0.019296   2.575    0.00018    0.00752
        641    78 -338.496183 -338.515464    0.019281   2.575    0.00020    0.00748
        642    78 -338.496203 -338.515491    0.019287   2.575    0.00021    0.00744
        643    76 -338.496224 -338.515535    0.019312   2.575    0.00022    0.00741
        644    76 -338.496246 -338.515587    0.019341   2.575    0.00022    0.00737
        645    76 -338.496272 -338.515571    0.019299   2.575    0.00023    0.00734
        646    69 -338.496297 -338.515476    0.019178   2.575    0.00023    0.00731
        647    69 -338.496322 -338.515301    0.018980   2.575    0.00023    0.00727
        648    68 -338.496344 -338.515106    0.018762   2.575    0.00023    0.00724
        649    77 -338.496364 -338.514906    0.018542   2.575    0.00023    0.00721
        650    68 -338.496382 -338.514754    0.018372   2.575    0.00023    0.00718
        651    77 -338.496399 -338.514610    0.018211   2.575    0.00022    0.00714
        652    69 -338.496416 -338.514550    0.018134   2.575    0.00022    0.00711
        653    77 -338.496433 -338.514456    0.018022   2.575    0.00021    0.00708
        654    69 -338.496450 -338.514419    0.017969   2.575    0.00021    0.00705
        655    77 -338.496466 -338.514342    0.017876   2.575    0.00021    0.00702
        656    67 -338.496482 -338.514309    0.017827   2.575    0.00020    0.00699
        657    77 -338.496497 -338.514230    0.017734   2.575    0.00020    0.00696
        658    66 -338.496511 -338.514191    0.017680   2.575    0.00020    0.00693
        659    72 -338.496525 -338.514101    0.017576   2.575    0.00019    0.00690
        660    66 -338.496539 -338.514050    0.017511   2.575    0.00019    0.00687
        661    69 -338.496553 -338.513949    0.017396   2.575    0.00019    0.00684
        662    69 -338.496568 -338.513877    0.017309   2.575    0.00019    0.00681
        663    76 -338.496584 -338.513775    0.017192   2.575    0.00019    0.00678
        664    69 -338.496599 -338.513698    0.017099   2.575    0.00018    0.00675
        665    76 -338.496616 -338.513594    0.016978   2.575    0.00018    0.00672
        666    70 -338.496634 -338.513519    0.016885   2.575    0.00018    0.00670
        667    76 -338.496651 -338.513420    0.016768   2.575    0.00018    0.00667
        668    69 -338.496670 -338.513346    0.016676   2.575    0.00017    0.00664
        669    78 -338.496688 -338.513249    0.016561   2.575    0.00017    0.00661
        670    68 -338.496707 -338.513176    0.016469   2.575    0.00017    0.00659
        671    76 -338.496726 -338.513080    0.016354   2.575    0.00017    0.00656
        672    69 -338.496744 -338.513009    0.016265   2.575    0.00016    0.00653
        673    77 -338.496763 -338.512911    0.016147   2.575    0.00016    0.00650
        674    76 -338.496781 -338.512841    0.016060   2.575    0.00016    0.00648
        675    69 -338.496800 -338.512757    0.015957   2.575    0.00016    0.00645
        676    77 -338.496818 -338.512675    0.015858   2.575    0.00016    0.00642
        677    69 -338.496836 -338.512609    0.015774   2.575    0.00015    0.00640
        678    77 -338.496853 -338.512523    0.015670   2.575    0.00015    0.00637
        679    69 -338.496870 -338.512467    0.015597   2.575    0.00015    0.00635
        680    77 -338.496888 -338.512379    0.015491   2.575    0.00015    0.00632
        681    68 -338.496904 -338.512327    0.015423   2.575    0.00015    0.00629
        682    77 -338.496921 -338.512238    0.015317   2.575    0.00015    0.00627
        683    69 -338.496936 -338.512186    0.015250   2.575    0.00014    0.00624
        684    77 -338.496953 -338.512097    0.015144   2.575    0.00014    0.00622
        685    69 -338.496969 -338.512044    0.015075   2.575    0.00014    0.00619
        686    69 -338.496985 -338.511960    0.014975   2.575    0.00014    0.00617
        687    69 -338.497000 -338.511899    0.014899   2.575    0.00014    0.00614
        688    69 -338.497016 -338.511824    0.014808   2.575    0.00013    0.00612
        689    68 -338.497031 -338.511760    0.014729   2.575    0.00013    0.00609
        690    69 -338.497046 -338.511691    0.014645   2.575    0.00013    0.00607
        691    69 -338.497061 -338.511626    0.014565   2.575    0.00013    0.00605
        692    77 -338.497076 -338.511557    0.014481   2.575    0.00013    0.00602
        693    69 -338.497091 -338.511500    0.014409   2.575    0.00013    0.00600
        694    69 -338.497106 -338.511428    0.014322   2.575    0.00012    0.00597
        695    69 -338.497120 -338.511368    0.014248   2.575    0.00012    0.00595
        696    69 -338.497135 -338.511300    0.014165   2.575    0.00012    0.00593
        697    69 -338.497149 -338.511237    0.014088   2.575    0.00012    0.00590
        698    69 -338.497163 -338.511171    0.014008   2.575    0.00012    0.00588
        699    69 -338.497176 -338.511108    0.013933   2.575    0.00012    0.00586
        700    69 -338.497186 -338.511065    0.013879   2.575    0.00012    0.00583
        701    76 -338.497196 -338.511065    0.013868   2.575    0.00012    0.00581
        702    69 -338.497209 -338.511036    0.013827   2.575    0.00012    0.00579
        703    76 -338.497222 -338.510949    0.013728   2.575    0.00012    0.00576
        704    69 -338.497235 -338.510872    0.013637   2.575    0.00012    0.00574
        705    69 -338.497248 -338.510788    0.013540   2.575    0.00011    0.00572
        706    69 -338.497261 -338.510731    0.013469   2.575    0.00011    0.00570
        707    78 -338.497274 -338.510666    0.013392   2.575    0.00011    0.00567
        708    69 -338.497288 -338.510615    0.013327   2.575    0.00011    0.00565
        709    78 -338.497301 -338.510544    0.013243   2.575    0.00011    0.00563
        710    69 -338.497315 -338.510493    0.013178   2.575    0.00011    0.00561
        711    78 -338.497329 -338.510426    0.013097   2.575    0.00011    0.00559
        712    69 -338.497343 -338.510379    0.013036   2.575    0.00011    0.00556
        713    77 -338.497356 -338.510325    0.012968   2.575    0.00011    0.00554
        714    78 -338.497371 -338.510302    0.012932   2.575    0.00011    0.00552
        715    78 -338.497385 -338.510273    0.012888   2.575    0.00011    0.00550
        716    78 -338.497399 -338.510244    0.012845   2.575    0.00011    0.00548
        717    78 -338.497412 -338.510203    0.012790   2.575    0.00010    0.00546
        718    78 -338.497425 -338.510151    0.012726   2.575    0.00010    0.00544
        719    78 -338.497438 -338.510090    0.012652   2.575    0.00010    0.00541
        720    78 -338.497449 -338.510025    0.012575   2.575    0.00010    0.00539
        721    78 -338.497461 -338.509959    0.012498   2.575    0.00010    0.00537
        722    69 -338.497471 -338.509898    0.012427   2.575    0.00010    0.00535
        723    69 -338.497482 -338.509841    0.012358   2.575    0.00010    0.00533
        724    76 -338.497493 -338.509793    0.012300   2.575    0.00010    0.00531
        725    69 -338.497504 -338.509752    0.012249   2.575    0.00010    0.00529
        726    69 -338.497515 -338.509716    0.012201   2.575    0.00010    0.00527
        727    69 -338.497526 -338.509691    0.012165   2.575    0.00010    0.00525
        728    69 -338.497538 -338.509663    0.012125   2.575    0.00010    0.00523
        729    69 -338.497550 -338.509635    0.012085   2.575    0.00010    0.00521
        730    78 -338.497562 -338.509598    0.012036   2.575    0.00010    0.00519
[...]
       1279    57 -338.495100 -338.495393    0.000294   0.142    0.00036    0.00008
       1280    57 -338.495103 -338.495384    0.000281   0.142    0.00035    0.00008
       1281    45 -338.495107 -338.495374    0.000267   0.142    0.00034    0.00007
       1282    46 -338.495110 -338.495366    0.000257   0.142    0.00032    0.00007
       1283    57 -338.495111 -338.495358    0.000247   0.142    0.00031    0.00007
       1284    57 -338.495114 -338.495352    0.000237   0.142    0.00030    0.00007
       1285    57 -338.495116 -338.495345    0.000229   0.142    0.00029    0.00006
       1286    57 -338.495118 -338.495339    0.000221   0.142    0.00028    0.00006
       1287    45 -338.495120 -338.495332    0.000212   0.142    0.00027    0.00006
       1288    57 -338.495121 -338.495327    0.000205   0.142    0.00026    0.00006
       1289    56 -338.495124 -338.495321    0.000197   0.142    0.00025    0.00005
       1290    46 -338.495125 -338.495315    0.000190   0.142    0.00024    0.00005
       1291    57 -338.495126 -338.495309    0.000184   0.142    0.00024    0.00005
       1292    57 -338.495128 -338.495305    0.000177   0.142    0.00023    0.00005
       1293    48 -338.495129 -338.495299    0.000170   0.142    0.00022    0.00005
       1294    45 -338.495131 -338.495296    0.000165   0.142    0.00022    0.00005
       1295    57 -338.495131 -338.495290    0.000159   0.142    0.00021    0.00004
       1296    55 -338.495133 -338.495287    0.000155   0.142    0.00021    0.00004
       1297    53 -338.495133 -338.495283    0.000150   0.142    0.00020    0.00004
       1298    57 -338.495134 -338.495280    0.000146   0.142    0.00020    0.00004
       1299    48 -338.495135 -338.495277    0.000142   0.142    0.00019    0.00004
       1300    57 -338.495136 -338.495275    0.000139   0.142    0.00019    0.00004
       1301    57 -338.495136 -338.495271    0.000135   0.142    0.00018    0.00004
       1302    53 -338.495137 -338.495269    0.000132   0.142    0.00018    0.00004
       1303    48 -338.495138 -338.495266    0.000128   0.142    0.00018    0.00004
       1304    57 -338.495138 -338.495264    0.000126   0.142    0.00017    0.00003
       1305    57 -338.495139 -338.495261    0.000122   0.142    0.00017    0.00003
       1306    45 -338.495139 -338.495258    0.000119   0.142    0.00017    0.00003
       1307    55 -338.495140 -338.495255    0.000115   0.142    0.00016    0.00003
       1308    53 -338.495141 -338.495253    0.000112   0.142    0.00016    0.00003
       1309    48 -338.495141 -338.495249    0.000108   0.142    0.00016    0.00003
       1310    57 -338.495142 -338.495248    0.000106   0.142    0.00015    0.00003
       1311    48 -338.495142 -338.495243    0.000101   0.142    0.00015    0.00003
       1312    48 -338.495143 -338.495242    0.000100   0.142    0.00015    0.00003
       1313    55 -338.495143 -338.495238    0.000095   0.142    0.00014    0.00003
       1314    57 -338.495144 -338.495237    0.000093   0.142    0.00014    0.00003
       1315    45 -338.495144 -338.495233    0.000089   0.142    0.00014    0.00003
       1316    45 -338.495144 -338.495231    0.000087   0.142    0.00014    0.00003
       1317    57 -338.495144 -338.495228    0.000083   0.142    0.00014    0.00003
       1318    57 -338.495144 -338.495226    0.000081   0.142    0.00013    0.00002
       1319    57 -338.495144 -338.495222    0.000078   0.142    0.00013    0.00002
       1320    48 -338.495145 -338.495220    0.000075   0.142    0.00013    0.00002
       1321    43 -338.495145 -338.495216    0.000072   0.142    0.00013    0.00002
       1322    57 -338.495145 -338.495214    0.000070   0.142    0.00013    0.00002
       1323    55 -338.495145 -338.495211    0.000066   0.142    0.00013    0.00002
       1324    57 -338.495145 -338.495209    0.000064   0.142    0.00012    0.00002
       1325    45 -338.495145 -338.495206    0.000061   0.142    0.00012    0.00002
       1326    48 -338.495145 -338.495204    0.000060   0.142    0.00012    0.00002
       1327    53 -338.495145 -338.495201    0.000057   0.142    0.00012    0.00002
       1328    48 -338.495145 -338.495200    0.000055   0.142    0.00012    0.00002
       1329    57 -338.495145 -338.495197    0.000053   0.142    0.00012    0.00002
       1330    57 -338.495145 -338.495196    0.000051   0.142    0.00012    0.00002
       1331    55 -338.495145 -338.495194    0.000049   0.142    0.00012    0.00002
       1332    48 -338.495145 -338.495192    0.000047   0.142    0.00011    0.00002
       1333    46 -338.495145 -338.495190    0.000045   0.142    0.00011    0.00002
       1334    57 -338.495145 -338.495189    0.000044   0.142    0.00011    0.00002
       1335    53 -338.495145 -338.495187    0.000042   0.142    0.00011    0.00002
       1336    48 -338.495145 -338.495186    0.000041   0.142    0.00011    0.00002
       1337    57 -338.495145 -338.495184    0.000039   0.142    0.00011    0.00002
       1338    48 -338.495145 -338.495183    0.000038   0.142    0.00011    0.00002
       1339    43 -338.495145 -338.495182    0.000037   0.142    0.00011    0.00002
       1340    57 -338.495145 -338.495181    0.000036   0.142    0.00011    0.00002
       1341    48 -338.495145 -338.495179    0.000034   0.142    0.00010    0.00002
       1342    57 -338.495145 -338.495179    0.000034   0.142    0.00010    0.00002
       1343    45 -338.495145 -338.495177    0.000031   0.142    0.00010    0.00002
       1344    48 -338.495145 -338.495177    0.000031   0.142    0.00010    0.00001
       1345    57 -338.495145 -338.495175    0.000030   0.142    0.00010    0.00001
       1346    48 -338.495145 -338.495175    0.000029   0.142    0.00010    0.00001

        ==> Orbital Optimization <==

            Orbital Optimization converged in  10 iterations 
            Total energy change: -3.216234e-06
            Final gradient norm: 9.216230e-05

       1347   122 -338.495532 -338.495376    0.000156   0.142    0.00227    0.00036
       1348    68 -338.495556 -338.495337    0.000219   0.142    0.00161    0.00021
       1349    57 -338.495401 -338.495308    0.000093   0.142    0.00105    0.00019
       1350    57 -338.495253 -338.495302    0.000049   0.142    0.00088    0.00016
       1351    57 -338.495191 -338.495288    0.000097   0.142    0.00079    0.00013
       1352    48 -338.495201 -338.495289    0.000088   0.142    0.00069    0.00011
       1353    48 -338.495229 -338.495287    0.000059   0.142    0.00058    0.00010
       1354    53 -338.495245 -338.495292    0.000048   0.142    0.00049    0.00009
       1355    56 -338.495238 -338.495281    0.000043   0.142    0.00043    0.00009
       1356    46 -338.495222 -338.495280    0.000058   0.142    0.00039    0.00008
       1357    48 -338.495207 -338.495273    0.000066   0.142    0.00036    0.00008
       1358    57 -338.495195 -338.495277    0.000083   0.142    0.00034    0.00007
       1359    48 -338.495185 -338.495276    0.000090   0.142    0.00031    0.00007
       1360    57 -338.495176 -338.495277    0.000102   0.142    0.00030    0.00006
       1361    57 -338.495165 -338.495272    0.000107   0.142    0.00028    0.00006
       1362    45 -338.495155 -338.495269    0.000114   0.142    0.00026    0.00006
       1363    57 -338.495146 -338.495258    0.000112   0.142    0.00025    0.00005
       1364    56 -338.495140 -338.495256    0.000116   0.142    0.00023    0.00005
       1365    57 -338.495137 -338.495248    0.000111   0.142    0.00022    0.00005
       1366    45 -338.495137 -338.495248    0.000111   0.142    0.00022    0.00005
       1367    57 -338.495139 -338.495244    0.000106   0.142    0.00021    0.00004
       1368    55 -338.495141 -338.495248    0.000108   0.142    0.00020    0.00004
       1369    48 -338.495142 -338.495249    0.000106   0.142    0.00019    0.00004
       1370    57 -338.495145 -338.495252    0.000106   0.142    0.00019    0.00003
       1371    57 -338.495147 -338.495253    0.000106   0.142    0.00018    0.00003
       1372    57 -338.495150 -338.495255    0.000105   0.142    0.00018    0.00003
       1373    55 -338.495153 -338.495254    0.000102   0.142    0.00017    0.00003
       1374    57 -338.495155 -338.495253    0.000098   0.142    0.00017    0.00003
       1375    57 -338.495158 -338.495249    0.000092   0.142    0.00017    0.00003
       1376    57 -338.495160 -338.495246    0.000086   0.142    0.00017    0.00003
       1377    57 -338.495162 -338.495239    0.000077   0.142    0.00016    0.00002
       1378    57 -338.495164 -338.495233    0.000069   0.142    0.00016    0.00002
       1379    59 -338.495165 -338.495226    0.000061   0.142    0.00016    0.00002
       1380    57 -338.495166 -338.495219    0.000053   0.142    0.00015    0.00002
       1381    59 -338.495167 -338.495212    0.000044   0.142    0.00015    0.00002
       1382    57 -338.495168 -338.495206    0.000038   0.142    0.00014    0.00002
       1383    59 -338.495169 -338.495199    0.000031   0.142    0.00014    0.00002
       1384    57 -338.495169 -338.495195    0.000026   0.142    0.00013    0.00002
       1385    59 -338.495170 -338.495190    0.000020   0.142    0.00013    0.00002
       1386    59 -338.495170 -338.495187    0.000017   0.142    0.00013    0.00002
       1387    59 -338.495171 -338.495183    0.000013   0.142    0.00012    0.00002
       1388    59 -338.495171 -338.495182    0.000010   0.142    0.00012    0.00001
       1389    59 -338.495172 -338.495179    0.000007   0.142    0.00012    0.00001
       1390    59 -338.495172 -338.495178    0.000006   0.142    0.00012    0.00001
       1391    59 -338.495172 -338.495176    0.000004   0.142    0.00012    0.00001
       1392    58 -338.495172 -338.495176    0.000003   0.142    0.00011    0.00001
       1393    59 -338.495173 -338.495174    0.000001   0.142    0.00011    0.00001
       1394    57 -338.495173 -338.495174    0.000001   0.142    0.00011    0.00001
       1395    59 -338.495173 -338.495173    0.000001   0.142    0.00011    0.00001
       1396    57 -338.495173 -338.495172    0.000001   0.142    0.00011    0.00001
       1397    59 -338.495173 -338.495171    0.000002   0.142    0.00010    0.00001
       1398    59 -338.495173 -338.495171    0.000002   0.142    0.00010    0.00001
       1399    59 -338.495173 -338.495170    0.000003   0.142    0.00010    0.00001
       1400    58 -338.495173 -338.495169    0.000003   0.142    0.00010    0.00001

        ==> Orbital Optimization <==

            Orbital Optimization converged in   4 iterations 
            Total energy change: -2.397569e-07
            Final gradient norm: 9.044675e-05

       1401   103 -338.495209 -338.495216    0.000007   0.142    0.00039    0.00007
       1402    59 -338.495215 -338.495207    0.000009   0.142    0.00031    0.00005
       1403    57 -338.495206 -338.495205    0.000001   0.142    0.00024    0.00004
       1404    57 -338.495198 -338.495202    0.000004   0.142    0.00022    0.00004
       1405    48 -338.495193 -338.495196    0.000003   0.142    0.00021    0.00003
       1406    48 -338.495192 -338.495191    0.000000   0.142    0.00020    0.00003
       1407    48 -338.495191 -338.495187    0.000003   0.142    0.00018    0.00003
       1408    48 -338.495191 -338.495185    0.000006   0.142    0.00016    0.00003
       1409    57 -338.495190 -338.495183    0.000007   0.142    0.00014    0.00003
       1410    48 -338.495189 -338.495181    0.000009   0.142    0.00013    0.00002
       1411    57 -338.495188 -338.495181    0.000007   0.142    0.00013    0.00002
       1412    48 -338.495185 -338.495181    0.000004   0.142    0.00012    0.00002
       1413    57 -338.495181 -338.495182    0.000000   0.142    0.00011    0.00002
       1414    50 -338.495177 -338.495182    0.000005   0.142    0.00011    0.00002
       1415    57 -338.495173 -338.495183    0.000009   0.142    0.00011    0.00002
       1416    48 -338.495171 -338.495182    0.000012   0.142    0.00010    0.00002
       1417    48 -338.495169 -338.495182    0.000013   0.142    0.00010    0.00002
       1418    57 -338.495168 -338.495181    0.000014   0.142    0.00010    0.00002

        ==> Orbital Optimization <==

            Orbital Optimization converged in   3 iterations 
            Total energy change: -1.469891e-08
            Final gradient norm: 5.610850e-05

       1419    75 -338.495165 -338.495206    0.000041   0.142    0.00014    0.00003
       1420    59 -338.495164 -338.495198    0.000034   0.142    0.00012    0.00002
       1421    51 -338.495167 -338.495195    0.000028   0.142    0.00011    0.00002
       1422    46 -338.495172 -338.495194    0.000023   0.142    0.00011    0.00002
       1423    57 -338.495174 -338.495192    0.000018   0.142    0.00011    0.00002
       1424    45 -338.495173 -338.495190    0.000016   0.142    0.00011    0.00002
       1425    55 -338.495172 -338.495187    0.000015   0.142    0.00010    0.00002
       1426    57 -338.495171 -338.495185    0.000014   0.142    0.00010    0.00001
       1427    57 -338.495171 -338.495184    0.000013   0.142    0.00010    0.00001

        ==> Orbital Optimization <==

            Orbital Optimization converged in   2 iterations 
            Total energy change: -1.479634e-09
            Final gradient norm: 4.204800e-05


      v2RDM iterations converged!

      v2RDM total spin [S(S+1)]:             2.000005
    * v2RDM total energy:           -338.495170882039


 # Natural Orbital Occupation Numbers (alpha) #
 Irrep: 1
      1:  1.0000000
      2:  1.0000000
      3:  1.0000000
      4:  1.0000000
      5:  1.0000000
      6:  1.0000000
      7:  1.0000000
      8:  1.0000000
      9:  0.0000000
     10:  0.0000000
     11:  0.0000000
     12:  0.0000000
     13:  0.0000000
     14:  0.0000000
     15:  0.0000000
     16:  0.0000000
     17:  0.0000000
     18:  0.0000000
     19:  0.0000000
     20:  0.0000000
     21:  0.0000000
     22:  0.0000000
     23:  0.0000000
     24:  0.0000000
     25:  0.0000000
     26:  0.0000000
     27:  0.0000000
     28:  0.0000000

 Irrep: 2
      1:  1.0000000
      2:  1.0000000
      3:  1.0000000
      4:  0.9733349
      5:  0.0000000
      6:  0.0000000
      7:  0.0000000
      8:  0.0000000
      9:  0.0000000
     10:  0.0000000
     11:  0.0000000
     12:  0.0000000
     13:  0.0000000
     14:  0.0000000
     15:  0.0000000
     16:  0.0000000
     17:  0.0000000
     18:  0.0000000
     19:  0.0000000
     20:  0.0000000

 Irrep: 3
      1:  0.9493864
      2:  0.0000000
      3:  0.0000000
      4:  0.0000000
      5:  0.0000000
      6:  0.0000000
      7:  0.0000000

 Irrep: 4
      1:  0.9569665
      2:  0.1479160
      3:  0.0250509
      4:  0.0000000
      5:  0.0000000
      6:  0.0000000
      7:  0.0000000
      8:  0.0000000
      9:  0.0000000
     10:  0.0000000
     11:  0.0000000

 Irrep: 5
      1:  0.0506430
      2:  0.0000000
      3:  0.0000000
      4:  0.0000000
      5:  0.0000000
      6:  0.0000000
      7:  0.0000000

 Irrep: 6
      1:  0.9710087
      2:  0.9114146
      3:  0.0438045
      4:  0.0000000
      5:  0.0000000
      6:  0.0000000
      7:  0.0000000
      8:  0.0000000
      9:  0.0000000
     10:  0.0000000
     11:  0.0000000

 Irrep: 7
      1:  1.0000000
      2:  1.0000000
      3:  1.0000000
      4:  1.0000000
      5:  1.0000000
      6:  1.0000000
      7:  1.0000000
      8:  0.0000000
      9:  0.0000000
     10:  0.0000000
     11:  0.0000000
     12:  0.0000000
     13:  0.0000000
     14:  0.0000000
     15:  0.0000000
     16:  0.0000000
     17:  0.0000000
     18:  0.0000000
     19:  0.0000000
     20:  0.0000000
     21:  0.0000000
     22:  0.0000000
     23:  0.0000000
     24:  0.0000000
     25:  0.0000000
     26:  0.0000000
     27:  0.0000000
     28:  0.0000000

 Irrep: 8
      1:  1.0000000
      2:  1.0000000
      3:  1.0000000
      4:  1.0000000
      5:  0.9704744
      6:  0.0000000
      7:  0.0000000
      8:  0.0000000
      9:  0.0000000
     10:  0.0000000
     11:  0.0000000
     12:  0.0000000
     13:  0.0000000
     14:  0.0000000
     15:  0.0000000
     16:  0.0000000
     17:  0.0000000
     18:  0.0000000
     19:  0.0000000
     20:  0.0000000


 # Natural Orbital Occupation Numbers (beta) #
 Irrep: 1
      1:  1.0000000
      2:  1.0000000
      3:  1.0000000
      4:  1.0000000
      5:  1.0000000
      6:  1.0000000
      7:  1.0000000
      8:  1.0000000
      9:  0.0000000
     10:  0.0000000
     11:  0.0000000
     12:  0.0000000
     13:  0.0000000
     14:  0.0000000
     15:  0.0000000
     16:  0.0000000
     17:  0.0000000
     18:  0.0000000
     19:  0.0000000
     20:  0.0000000
     21:  0.0000000
     22:  0.0000000
     23:  0.0000000
     24:  0.0000000
     25:  0.0000000
     26:  0.0000000
     27:  0.0000000
     28:  0.0000000

 Irrep: 2
      1:  1.0000000
      2:  1.0000000
      3:  1.0000000
      4:  0.0309104
      5:  0.0000000
      6:  0.0000000
      7:  0.0000000
      8:  0.0000000
      9:  0.0000000
     10:  0.0000000
     11:  0.0000000
     12:  0.0000000
     13:  0.0000000
     14:  0.0000000
     15:  0.0000000
     16:  0.0000000
     17:  0.0000000
     18:  0.0000000
     19:  0.0000000
     20:  0.0000000

 Irrep: 3
      1:  0.9470281
      2:  0.0000000
      3:  0.0000000
      4:  0.0000000
      5:  0.0000000
      6:  0.0000000
      7:  0.0000000

 Irrep: 4
      1:  0.9535723
      2:  0.0937021
      3:  0.0257242
      4:  0.0000000
      5:  0.0000000
      6:  0.0000000
      7:  0.0000000
      8:  0.0000000
      9:  0.0000000
     10:  0.0000000
     11:  0.0000000

 Irrep: 5
      1:  0.0486679
      2:  0.0000000
      3:  0.0000000
      4:  0.0000000
      5:  0.0000000
      6:  0.0000000
      7:  0.0000000

 Irrep: 6
      1:  0.9720521
      2:  0.8606411
      3:  0.0410557
      4:  0.0000000
      5:  0.0000000
      6:  0.0000000
      7:  0.0000000
      8:  0.0000000
      9:  0.0000000
     10:  0.0000000
     11:  0.0000000

 Irrep: 7
      1:  1.0000000
      2:  1.0000000
      3:  1.0000000
      4:  1.0000000
      5:  1.0000000
      6:  1.0000000
      7:  1.0000000
      8:  0.0000000
      9:  0.0000000
     10:  0.0000000
     11:  0.0000000
     12:  0.0000000
     13:  0.0000000
     14:  0.0000000
     15:  0.0000000
     16:  0.0000000
     17:  0.0000000
     18:  0.0000000
     19:  0.0000000
     20:  0.0000000
     21:  0.0000000
     22:  0.0000000
     23:  0.0000000
     24:  0.0000000
     25:  0.0000000
     26:  0.0000000
     27:  0.0000000
     28:  0.0000000

 Irrep: 8
      1:  1.0000000
      2:  1.0000000
      3:  1.0000000
      4:  1.0000000
      5:  0.0266462
      6:  0.0000000
      7:  0.0000000
      8:  0.0000000
      9:  0.0000000
     10:  0.0000000
     11:  0.0000000
     12:  0.0000000
     13:  0.0000000
     14:  0.0000000
     15:  0.0000000
     16:  0.0000000
     17:  0.0000000
     18:  0.0000000
     19:  0.0000000
     20:  0.0000000


  ==> Iteration count <==

      Microiterations:                   93799
      Macroiterations:                    1428
      Orbital optimization steps:            6

  ==> Wall time <==

      Microiterations:                  100.24 s
      Macroiterations:                    8.04 s
      Orbital optimization:              11.68 s
      Total:                            122.82 s


*** tstop() called on Eugenes-MacBook-Pro-2.local at Thu May  5 15:56:38 2016
Module time:
	user time   =     124.48 seconds =       2.07 minutes
	system time =       0.51 seconds =       0.01 minutes
	total time  =        125 seconds =       2.08 minutes
Total time:
	user time   =     331.53 seconds =       5.53 minutes
	system time =       1.80 seconds =       0.03 minutes
	total time  =        330 seconds =       5.50 minutes
	triplet...........................................................PASSED

*** PSI4 exiting successfully. Buy a developer a beer!
