    -----------------------------------------------------------------------
          Psi4: An Open-Source Ab Initio Electronic Structure Package
                              Psi4 0.4.224 Driver

                          Git: Rev {master} e38ff50 

    J. M. Turney, A. C. Simmonett, R. M. Parrish, E. G. Hohenstein,
    F. A. Evangelista, J. T. Fermann, B. J. Mintz, L. A. Burns, J. J. Wilke,
    M. L. Abrams, N. J. Russ, M. L. Leininger, C. L. Janssen, E. T. Seidl,
    W. D. Allen, H. F. Schaefer, R. A. King, E. F. Valeev, C. D. Sherrill,
    and T. D. Crawford, WIREs Comput. Mol. Sci. 2, 556-565 (2012)
    (doi: 10.1002/wcms.93)

                         Additional Contributions by
    A. E. DePrince, U. Bozkaya, A. Yu. Sokolov, D. G. A. Smith, R. Di Remigio,
    R. M. Richard, J. F. Gonthier, H. R. McAlexander, M. Saitow, and
    B. P. Pritchard
    -----------------------------------------------------------------------


    Psi4 started on: Fri Apr  8 11:57:49 2016

    Process ID:  12453
    PSI4DATADIR: /edfs/users/edgroup/software/psi4/install/psi4-gcc-release/share/psi4
    Memory level set to 256.000 MB

  ==> Input File <==

--------------------------------------------------------------------------
#! cc-pvdz N2 (6,6) active space Test DQG

# job description
print '        Li / STO-3G / DQG+D3 vs full CI, scf_type = PK'

sys.path.insert(0, '../../..')
import v2rdm_casscf

molecule li {
0 2
Li
}

set {
  basis sto-3g
  scf_type pk
  d_convergence      1e-10
  guess sad
  maxiter 500
  reference rohf

}
set v2rdm_casscf {
  positivity d
  constrain_d3 true
  r_convergence  1e-5
  e_convergence  1e-6
  maxiter 20000
  optimize_orbitals false
}

activate(li)
v2rdm = energy('v2rdm-casscf')
fci   = energy('fci')

compare_values(v2rdm, fci, 5, "v2RDM vs full CI") # TEST

--------------------------------------------------------------------------
/edfs/users/deprince/chem/v2rdm_casscf/v2rdm_casscf.so loaded.

*** tstart() called on ed4
*** at Fri Apr  8 11:57:50 2016


         ---------------------------------------------------------
                                   SCF
            by Justin Turney, Rob Parrish, and Andy Simmonett
                             ROHF Reference
                        1 Threads,    256 MiB Core
         ---------------------------------------------------------

  ==> Geometry <==

    Molecular point group: d2h
    Geometry (in Angstrom), charge = 0, multiplicity = 2:

       Center              X                  Y                   Z               Mass       
    ------------   -----------------  -----------------  -----------------  -----------------
          LI          0.000000000000     0.000000000000     0.000000000000     7.016004548000

  Running in d2h symmetry.

  Rotational constants: A = ************  B = ************  C = ************ [cm^-1]
  Rotational constants: A = ************  B = ************  C = ************ [MHz]
  Nuclear repulsion =    0.000000000000000

  Charge       = 0
  Multiplicity = 2
  Electrons    = 3
  Nalpha       = 2
  Nbeta        = 1

  ==> Algorithm <==

  SCF Algorithm Type is PK.
  DIIS enabled.
  MOM disabled.
  Fractional occupation disabled.
  Guess Type is SAD.
  Energy threshold   = 1.00e-08
  Density threshold  = 1.00e-10
  Integral threshold = 0.00e+00

  ==> Primary Basis <==

  Basis Set: STO-3G
    Number of shells: 3
    Number of basis function: 5
    Number of Cartesian functions: 5
    Spherical Harmonics?: true
    Max angular momentum: 1

  ==> Pre-Iterations <==

   -------------------------------------------------------
    Irrep   Nso     Nmo     Nalpha   Nbeta   Ndocc  Nsocc
   -------------------------------------------------------
     Ag         2       2       0       0       0       0
     B1g        0       0       0       0       0       0
     B2g        0       0       0       0       0       0
     B3g        0       0       0       0       0       0
     Au         0       0       0       0       0       0
     B1u        1       1       0       0       0       0
     B2u        1       1       0       0       0       0
     B3u        1       1       0       0       0       0
   -------------------------------------------------------
    Total       5       5       2       1       1       1
   -------------------------------------------------------

  ==> Integral Setup <==

	Batch   1 pq = [       0,       6] index = [             0,21]
  ==> DiskJK: Disk-Based J/K Matrices <==

    J tasked:                  Yes
    K tasked:                  Yes
    wK tasked:                  No
    Memory (MB):               183
    Schwarz Cutoff:          1E-12

  Minimum eigenvalue in the overlap matrix is 7.5886334882E-01.
  Using Symmetric Orthogonalization.
  SCF Guess: Superposition of Atomic Densities via on-the-fly atomic UHF.

  ==> Iterations <==

                        Total Energy        Delta E     RMS |[F,P]|

   @ROHF iter   0:    -8.07791328720376   -8.07791e+00   0.00000e+00 
   @ROHF iter   1:    -7.26622737522767    8.11686e-01   1.19319e-01 
   @ROHF iter   2:    -7.31504091762507   -4.88135e-02   1.19777e-02 DIIS
   @ROHF iter   3:    -7.31552594963906   -4.85032e-04   9.67515e-05 DIIS
   @ROHF iter   4:    -7.31552598128107   -3.16420e-08   6.64034e-08 DIIS
   @ROHF iter   5:    -7.31552598128109   -1.68754e-14   2.05873e-11 DIIS

  ==> Post-Iterations <==

    Orbital Energies (a.u.)
    -----------------------

    Doubly Occupied:                                                      

       1Ag    -2.353491  

    Singly Occupied:                                                      

       2Ag    -0.038960  

    Virtual:                                                              

       1B1u    0.160521     1B2u    0.160521     1B3u    0.160521  

    Final Occupation by Irrep:
             Ag   B1g   B2g   B3g    Au   B1u   B2u   B3u 
    DOCC [     1,    0,    0,    0,    0,    0,    0,    0 ]
    SOCC [     1,    0,    0,    0,    0,    0,    0,    0 ]

  Energy converged.

  @ROHF Final Energy:    -7.31552598128109

   => Energetics <=

    Nuclear Repulsion Energy =              0.0000000000000000
    One-Electron Energy =                  -9.7438984944084588
    Two-Electron Energy =                   2.4283725131273712
    DFT Exchange-Correlation Energy =       0.0000000000000000
    Empirical Dispersion Energy =           0.0000000000000000
    PCM Polarization Energy =               0.0000000000000000
    EFP Energy =                            0.0000000000000000
    Total Energy =                         -7.3155259812810876

    Alert: EFP and PCM quantities not currently incorporated into SCF psivars.

Properties will be evaluated at   0.000000,   0.000000,   0.000000 Bohr
  ==> Properties <==


Properties computed using the SCF density matrix

  Nuclear Dipole Moment: (a.u.)
     X:     0.0000      Y:     0.0000      Z:     0.0000

  Electronic Dipole Moment: (a.u.)
     X:     0.0000      Y:     0.0000      Z:     0.0000

  Dipole Moment: (a.u.)
     X:     0.0000      Y:     0.0000      Z:     0.0000     Total:     0.0000

  Dipole Moment: (Debye)
     X:     0.0000      Y:     0.0000      Z:     0.0000     Total:     0.0000


  Saving occupied orbitals to File 180.

*** tstop() called on ed4 at Fri Apr  8 11:57:51 2016
Module time:
	user time   =       0.10 seconds =       0.00 minutes
	system time =       0.02 seconds =       0.00 minutes
	total time  =          1 seconds =       0.02 minutes
Total time:
	user time   =       0.10 seconds =       0.00 minutes
	system time =       0.02 seconds =       0.00 minutes
	total time  =          1 seconds =       0.02 minutes

Reading options from the V2RDM_CASSCF block
Calling plugin v2rdm_casscf.so.



*** tstart() called on ed4
*** at Fri Apr  8 11:57:51 2016



        ****************************************************
        *                                                  *
        *    v2RDM-CASSCF                                  *
        *                                                  *
        *    A variational 2-RDM-driven approach to the    *
        *    active space self-consistent field method     *
        *                                                  *
        ****************************************************


        The following papers should be cited when using v2RDM-CASSCF:

        J. Fosso-Tande, D. R. Nascimento, and A. E. DePrince III,
        Mol. Phys. 114, 423-430 (2015).

            URL: http://dx.doi.org/10.1080/00268976.2015.1078008

        J. Fosso-Tande, T.-S. Nguyen, G. Gidofalvi, and
        A. E. DePrince III, submitted (2016).


  ==> Convergence parameters <==

        r_convergence:                      1.000e-05
        e_convergence:                      1.000e-06
        cg_convergence:                     1.000e-05
        maxiter:                                20000
        cg_maxiter:                             10000

  ==> Active space details <==

        Number of frozen core orbitals:             0
        Number of restricted occupied orbitals:     0
        Number of active occupied orbitals:         1
        Number of active virtual orbitals:          4
        Number of restricted virtual orbitals:      0
        Number of frozen virtual orbitals:          0

        Irrep:             Ag, B1g, B2g, B3g,  Au, B1u, B2u, B3u 
 
        frozen_docc     [   0,   0,   0,   0,   0,   0,   0,   0 ]
        restricted_docc [   0,   0,   0,   0,   0,   0,   0,   0 ]
        active          [   2,   0,   0,   0,   0,   1,   1,   1 ]
        restricted_uocc [   0,   0,   0,   0,   0,   0,   0,   0 ]
        frozen_uocc     [   0,   0,   0,   0,   0,   0,   0,   0 ]

  ==> Orbital optimization parameters <==

        1-step algorithm:                       1
        g_convergence:                  1.000e-04
        e_convergence:                  1.000e-08
        maximum iterations:                    20
        frequency:                            500
        active-active rotations:                0
        exact diagonal Hessian:                 0
        number of DIIS vectors:                 0
        print iteration info:                   0

  ==> Memory requirements <==

        D2:                          0.00 mb
        D3:                          0.00 mb

        Total number of variables:            857
        Total number of constraints:          328
        Total memory requirements:        0.04 mb

    ==> Transform two-electron integrals <==

	Presorting SO-basis two-electron integrals.
	Sorting File: SO Ints (nn|nn) nbuckets = 1
	Transforming the one-electron integrals and constructing Fock matrices
	Starting first half-transformation.
	Sorting half-transformed integrals.
	First half integral transformation complete.
	Starting second half-transformation.
	Two-electron integral transformation complete.

        Time for integral transformation:     0.08 s

    Molecular point group: d2h
    Geometry (in Angstrom), charge = 0, multiplicity = 2:

       Center              X                  Y                   Z               Mass       
    ------------   -----------------  -----------------  -----------------  -----------------
          LI          0.000000000000     0.000000000000     0.000000000000     7.016004548000

  -AO BASIS SET INFORMATION:
    Name                   = STO-3G
    Total number of shells = 3
    Number of primitives   = 9
    Number of AO           = 5
    Number of SO           = 5
    Maximum AM             = 1
    Spherical Harmonics    = TRUE

  -Contraction Scheme:
    Atom   Type   All Primitives // Shells:
   ------ ------ --------------------------
       1    LI     6s 3p // 2s 1p 

  ==> AO Basis Functions <==

    [ STO-3G ]
    spherical
    ****
   LI   1
    S   3 1.00
                        16.11957500           0.15432897
                         2.93620070           0.53532814
                         0.79465050           0.44463454
    S   3 1.00
                         0.63628970          -0.09996723
                         0.14786010           0.39951283
                         0.04808870           0.70011547
    P   3 1.00
                         0.63628970           0.15591627
                         0.14786010           0.60768372
                         0.04808870           0.39195739
    ****


        Read integrals......done.


    reference energy:          -7.315525981281
    frozen core energy:         0.000000000000
    initial 2-RDM energy:      -3.891254300581

      oiter iiter        E(p)        E(d)      E gap)      mu     eps(p)     eps(d)
          0    24  -11.540291   29.734747   41.275038   1.000   59.41457   43.33274
          1    15  -11.491016  -31.216569   19.725553   1.000    5.79126   21.06285
          2    17   -2.105106   -9.906091    7.800984   1.000    2.90320    4.18982
          3    16   -5.178205  -11.374633    6.196428   1.000    3.22279    1.39641
          4    15   -5.538165   -6.439509    0.901344   1.000    2.33831    1.15929
          5    13   -6.483899   -8.074775    1.590876   1.000    1.46433    0.91294
          6    11   -6.417049   -7.335318    0.918269   1.000    1.24603    0.54631
          7    12   -7.166813   -7.851392    0.684579   1.000    1.21982    0.35449
          8    11   -6.777502   -7.661811    0.884309   1.000    0.96769    0.35532
          9    12   -6.801590   -7.739470    0.937880   1.000    0.80812    0.32939
         10    11   -6.455350   -7.442903    0.987552   1.000    0.73275    0.25111
         11    13   -6.534716   -7.282562    0.747846   1.000    0.64841    0.24039
         12    11   -6.605159   -7.105870    0.500712   1.000    0.58656    0.22985
         13    11   -6.759850   -7.100145    0.340296   1.000    0.57230    0.19791
         14    11   -6.801968   -7.092391    0.290423   1.000    0.53078    0.17874
         15    11   -6.882209   -7.114663    0.232455   1.000    0.45858    0.18307
         16    11   -6.969031   -7.087529    0.118498   1.000    0.35542    0.18709
         17    10   -7.115021   -7.073907    0.041115   1.000    0.24451    0.17202
         18    11   -7.318749   -7.062747    0.256002   1.000    0.20737    0.14954
         19    11   -7.477357   -7.108378    0.368978   1.000    0.23185    0.11766
         20    11   -7.450419   -7.261689    0.188730   1.000    0.21574    0.06787
         21    11   -7.326435   -7.366652    0.040217   1.000    0.14527    0.07470
         22    10   -7.226134   -7.358351    0.132217   1.000    0.12330    0.06643
         23    11   -7.207480   -7.296875    0.089395   1.000    0.11737    0.04130
         24    11   -7.242713   -7.244413    0.001700   1.000    0.09341    0.03989
         25    11   -7.282770   -7.228849    0.053921   1.000    0.07774    0.03928
         26    11   -7.298685   -7.240329    0.058357   1.000    0.07212    0.03360
         27    11   -7.291466   -7.255180    0.036287   1.000    0.06213    0.03269
         28    10   -7.277278   -7.260967    0.016311   1.000    0.05268    0.03381
         29    10   -7.269252   -7.257082    0.012170   1.000    0.04831    0.03292
         30    10   -7.270915   -7.251767    0.019148   1.000    0.04418    0.03211
         31    10   -7.277000   -7.250613    0.026387   1.000    0.03906    0.03225
         32    10   -7.281508   -7.253873    0.027636   1.000    0.03472    0.03241
         33     8   -7.281910   -7.257532    0.024378   1.000    0.03124    0.03244
         34     9   -7.280517   -7.259515    0.021002   1.000    0.02834    0.03246
         35    10   -7.278417   -7.257022    0.021396   1.000    0.02583    0.03245
         36     8   -7.278976   -7.254191    0.024784   1.000    0.02345    0.03248
         37    10   -7.279599   -7.250565    0.029034   1.000    0.02112    0.03255
         38     7   -7.282251   -7.249915    0.032336   1.000    0.01906    0.03261
         39     7   -7.283765   -7.250557    0.033208   1.000    0.01735    0.03262
         40     9   -7.284845   -7.251939    0.032905   1.000    0.01582    0.03263
         41     9   -7.285214   -7.253389    0.031825   1.000    0.01436    0.03265
         42     7   -7.285340   -7.254026    0.031314   1.000    0.01299    0.03268
         43     9   -7.286397   -7.254129    0.032268   1.000    0.01178    0.03271
         44     9   -7.287017   -7.253612    0.033405   1.000    0.01075    0.03272
         45     7   -7.288169   -7.253109    0.035060   1.000    0.00984    0.03273
         46    10   -7.288946   -7.252433    0.036513   1.000    0.00899    0.03275
         47     7   -7.290222   -7.252112    0.038111   1.000    0.00818    0.03276
         48     7   -7.291178   -7.252005    0.039173   1.000    0.00745    0.03277
         49     7   -7.292152   -7.251954    0.040198   1.000    0.00681    0.03278
         50     7   -7.293083   -7.252235    0.040848   1.000    0.00623    0.03278
         51     9   -7.294291   -7.252519    0.041772   1.000    0.00569    0.03279
         52     7   -7.295125   -7.252754    0.042371   1.000    0.00518    0.03279
         53     7   -7.296102   -7.252775    0.043327   1.000    0.00471    0.03280
         54     7   -7.297071   -7.252799    0.044272   1.000    0.00430    0.03280
         55     7   -7.298122   -7.252616    0.045506   1.000    0.00392    0.03280
         56     9   -7.299021   -7.252425    0.046596   1.000    0.00357    0.03280
         57     7   -7.300154   -7.252329    0.047824   1.000    0.00323    0.03280
         58     7   -7.301198   -7.252313    0.048885   1.000    0.00293    0.03280
         59     7   -7.302235   -7.252297    0.049938   1.000    0.00267    0.03280
         60     7   -7.303234   -7.252393    0.050841   1.000    0.00242    0.03279
         61     7   -7.304296   -7.252459    0.051837   1.000    0.00220    0.03279
         62     7   -7.305306   -7.252549    0.052757   1.000    0.00200    0.03279
         63     7   -7.306348   -7.252565    0.053783   1.000    0.00183    0.03278
         64     7   -7.307356   -7.252580    0.054776   1.000    0.00170    0.03278
         65     7   -7.308441   -7.252536    0.055906   1.000    0.00229    0.03251
         66    11   -7.310640   -7.253326    0.057314   1.000    0.01163    0.03145
         67    11   -7.316585   -7.259806    0.056779   1.000    0.00562    0.03110
         68    11   -7.312220   -7.264790    0.047430   1.000    0.00280    0.03120
         69    11   -7.309994   -7.263087    0.046907   1.000    0.00282    0.03102
         70    14   -7.311117   -7.259967    0.051150   1.000    0.00270    0.03093
         71    14   -7.313148   -7.258091    0.055057   1.000    0.00201    0.03093
         72    10   -7.315031   -7.258019    0.057013   1.000    0.00146    0.03092
         73    11   -7.316436   -7.258832    0.057604   1.000    0.00171    0.03090
         74    11   -7.317969   -7.259707    0.058262   1.000    0.01916    0.02553
         75    11   -7.328792   -7.279227    0.049565   1.000    0.03821    0.01356
         76    11   -7.339865   -7.314109    0.025756   1.000    0.03571    0.00698
         77    13   -7.334558   -7.340606    0.006048   1.000    0.02247    0.01126
         78    11   -7.320271   -7.351481    0.031210   1.000    0.00927    0.01292
         79    11   -7.308381   -7.346561    0.038180   1.000    0.01162    0.01084
         80    11   -7.303504   -7.331566    0.028062   1.000    0.01753    0.00626
         81    13   -7.305018   -7.314782    0.009764   1.000    0.01688    0.00264
         82    15   -7.309848   -7.302219    0.007628   1.000    0.01037    0.00502
         83    11   -7.315591   -7.297752    0.017838   1.000    0.00265    0.00645
         84    11   -7.320181   -7.300798    0.019382   1.000    0.00648    0.00537
         85    11   -7.322429   -7.308743    0.013686   1.000    0.00958    0.00274
         86    14   -7.321900   -7.317486    0.004414   1.000    0.00865    0.00108
         87    15   -7.319353   -7.323714    0.004362   1.000    0.00498    0.00272
         88    11   -7.316243   -7.325564    0.009321   1.000    0.00129    0.00333
         89    12   -7.313880   -7.323420    0.009539   1.000    0.00342    0.00265
         90    11   -7.312954   -7.319024    0.006070   1.000    0.00477    0.00123
         91    14   -7.313456   -7.314542    0.001086   1.000    0.00410    0.00058
         92    14   -7.314865   -7.311620    0.003245   1.000    0.00216    0.00148
         93    11   -7.316431   -7.311008    0.005424   1.000    0.00081    0.00173
         94    11   -7.317546   -7.312334    0.005212   1.000    0.00212    0.00131
         95    11   -7.317922   -7.314655    0.003266   1.000    0.00269    0.00053
         96    14   -7.317603   -7.316893    0.000710   1.000    0.00224    0.00034
         97    14   -7.316860   -7.318268    0.001408   1.000    0.00117    0.00081
         98     8   -7.316062   -7.318457    0.002395   1.000    0.00034    0.00090
         99    14   -7.315530   -7.317713    0.002183   1.000    0.00098    0.00064
        100    14   -7.315359   -7.316472    0.001113   1.000    0.00124    0.00021
        101    15   -7.315562   -7.315343    0.000219   1.000    0.00098    0.00021
        102    14   -7.315953   -7.314682    0.001272   1.000    0.00048    0.00044
        103    10   -7.316366   -7.314641    0.001724   1.000    0.00047    0.00046
        104    11   -7.316629   -7.315075    0.001554   1.000    0.00080    0.00031
        105    12   -7.316696   -7.315735    0.000961   1.000    0.00089    0.00008
        106    15   -7.316575   -7.316310    0.000266   1.000    0.00072    0.00013
        107    14   -7.316363   -7.316624    0.000261   1.000    0.00046    0.00024
        108    11   -7.316151   -7.316611    0.000461   1.000    0.00032    0.00024
        109    11   -7.316020   -7.316358    0.000338   1.000    0.00038    0.00015
        110    14   -7.315999   -7.316010    0.000011   1.000    0.00040    0.00003
        111    16   -7.316071   -7.315715    0.000355   1.000    0.00035    0.00008
        112    14   -7.316187   -7.315573    0.000614   1.000    0.00034    0.00013
        113    11   -7.316295   -7.315597    0.000698   1.000    0.00040    0.00012
        114    11   -7.316357   -7.315742    0.000615   1.000    0.00045    0.00007
        115    12   -7.316361   -7.315927    0.000435   1.000    0.00046    0.00001
        116    16   -7.316319   -7.316073    0.000246   1.000    0.00042    0.00005
        117    10   -7.316258   -7.316138    0.000119   1.000    0.00036    0.00007
        118    11   -7.316201   -7.316114    0.000087   1.000    0.00034    0.00006
        119    14   -7.316173   -7.316034    0.000139   1.000    0.00033    0.00003
        120    15   -7.316174   -7.315936    0.000237   1.000    0.00033    0.00000
        121    18   -7.316198   -7.315864    0.000335   1.000    0.00034    0.00003
        122    15   -7.316231   -7.315836    0.000396   1.000    0.00035    0.00004
        123    13   -7.316259   -7.315853    0.000407   1.000    0.00037    0.00003
        124    13   -7.316273   -7.315898    0.000375   1.000    0.00038    0.00002
        125    13   -7.316270   -7.315948    0.000322   1.000    0.00037    0.00000
        126    16   -7.316256   -7.315984    0.000272   1.000    0.00036    0.00002
        127    15   -7.316239   -7.315996    0.000243   1.000    0.00035    0.00002
        128    15   -7.316225   -7.315985    0.000240   1.000    0.00035    0.00002
        129    15   -7.316219   -7.315960    0.000259   1.000    0.00034    0.00001
        130    16   -7.316221   -7.315933    0.000288   1.000    0.00034    0.00000
        131    16   -7.316229   -7.315916    0.000313   1.000    0.00035    0.00001
        132    15   -7.316238   -7.315911    0.000327   1.000    0.00035    0.00001
        133    15   -7.316245   -7.315919    0.000326   1.000    0.00036    0.00001
        134    15   -7.316247   -7.315932    0.000315   1.000    0.00036    0.00000
        135    16   -7.316246   -7.315946    0.000300   1.000    0.00036    0.00000
        136    18   -7.316241   -7.315954    0.000287   1.000    0.00036    0.00000
        137    15   -7.316237   -7.315956    0.000281   1.000    0.00035    0.00001
        138    15   -7.316233   -7.315951    0.000282   1.000    0.00035    0.00000
        139    16   -7.316232   -7.315944    0.000288   1.000    0.00035    0.00000
        140    19   -7.316233   -7.315937    0.000296   1.000    0.00035    0.00000
        141    18   -7.316236   -7.315933    0.000303   1.000    0.00035    0.00000
        142    17   -7.316238   -7.315933    0.000306   1.000    0.00035    0.00000
        143    18   -7.316240   -7.315935    0.000305   1.000    0.00035    0.00000
        144    18   -7.316240   -7.315939    0.000301   1.000    0.00035    0.00000
        145    19   -7.316239   -7.315943    0.000297   1.000    0.00035    0.00000
        146    18   -7.316238   -7.315944    0.000294   1.000    0.00035    0.00000
        147    18   -7.316237   -7.315944    0.000292   1.000    0.00035    0.00000
        148    19   -7.316236   -7.315943    0.000293   1.000    0.00035    0.00000
        149    19   -7.316236   -7.315941    0.000295   1.000    0.00035    0.00000
        150    20   -7.316236   -7.315939    0.000297   1.000    0.00035    0.00000
        151    19   -7.316237   -7.315938    0.000299   1.000    0.00035    0.00000
        152    20   -7.316237   -7.315938    0.000299   1.000    0.00035    0.00000
        153    19   -7.316238   -7.315939    0.000299   1.000    0.00035    0.00000
        154    19   -7.316238   -7.315940    0.000298   1.000    0.00035    0.00000
        155    18   -7.316238   -7.315941    0.000297   1.000    0.00035    0.00000
        156    19   -7.316237   -7.315941    0.000296   1.000    0.00035    0.00000
        157    19   -7.316237   -7.315941    0.000296   1.000    0.00035    0.00000
        158    20   -7.316237   -7.315941    0.000296   1.000    0.00035    0.00000
        159    19   -7.316237   -7.315940    0.000297   1.000    0.00035    0.00000
        160    20   -7.316237   -7.315940    0.000297   1.000    0.00035    0.00000
        161    20   -7.316237   -7.315939    0.000297   1.000    0.00035    0.00000
        162    19   -7.316237   -7.315940    0.000298   1.000    0.00035    0.00000
        163    19   -7.316237   -7.315940    0.000297   1.000    0.00035    0.00000
        164    20   -7.316237   -7.315940    0.000297   1.000    0.00035    0.00000
        165    19   -7.316237   -7.315940    0.000297   1.000    0.00035    0.00000
        166    20   -7.316237   -7.315940    0.000297   1.000    0.00035    0.00000
        167    20   -7.316237   -7.315940    0.000296   1.000    0.00035    0.00000
        168    20   -7.316237   -7.315940    0.000297   1.000    0.00035    0.00000
        169    20   -7.316237   -7.315940    0.000297   1.000    0.00035    0.00000
        170    19   -7.316237   -7.315940    0.000297   1.000    0.00035    0.00000
        171    20   -7.316237   -7.315940    0.000297   1.000    0.00035    0.00000
        172    19   -7.316237   -7.315940    0.000297   1.000    0.00035    0.00000
        173    20   -7.316237   -7.315940    0.000297   1.000    0.00035    0.00000
        174    20   -7.316237   -7.315940    0.000297   1.000    0.00035    0.00000
        175    20   -7.316237   -7.315940    0.000297   1.000    0.00035    0.00000
        176    20   -7.316237   -7.315940    0.000297   1.000    0.00035    0.00000
        177    20   -7.316237   -7.315940    0.000297   1.000    0.00035    0.00000
        178    20   -7.316237   -7.315940    0.000297   1.000    0.00035    0.00000
        179    19   -7.316237   -7.315940    0.000297   1.000    0.00035    0.00000
        180    20   -7.316237   -7.315940    0.000297   1.000    0.00035    0.00000
        181    20   -7.316237   -7.315940    0.000297   1.000    0.00035    0.00000
        182    20   -7.316237   -7.315940    0.000297   1.000    0.00035    0.00000
        183    20   -7.316237   -7.315940    0.000297   1.000    0.00035    0.00000
        184    19   -7.316237   -7.315940    0.000297   1.000    0.00035    0.00000
        185    20   -7.316237   -7.315940    0.000297   1.000    0.00035    0.00000
        186    20   -7.316236   -7.315940    0.000297   1.000    0.00035    0.00000
        187    19   -7.316236   -7.315940    0.000297   1.000    0.00035    0.00000
        188    18   -7.316236   -7.315940    0.000297   1.000    0.00035    0.00000
        189    20   -7.316236   -7.315940    0.000297   1.000    0.00035    0.00000
        190    20   -7.316236   -7.315940    0.000297   1.000    0.00035    0.00000
        191    20   -7.316236   -7.315940    0.000297   1.000    0.00035    0.00000
        192    20   -7.316236   -7.315940    0.000297   1.000    0.00035    0.00000
        193    19   -7.316236   -7.315940    0.000297   1.000    0.00035    0.00000
        194    19   -7.316236   -7.315940    0.000297   1.000    0.00035    0.00000
        195    19   -7.316236   -7.315940    0.000297   1.000    0.00035    0.00000
        196    19   -7.316236   -7.315940    0.000297   1.000    0.00035    0.00000
        197    19   -7.316236   -7.315940    0.000297   1.000    0.00035    0.00000
        198    19   -7.316236   -7.315940    0.000297   1.000    0.00035    0.00000
        199    20   -7.316236   -7.315940    0.000297   1.000    0.00035    0.00000
        200    20   -7.316236   -7.315940    0.000297   1.000    0.00035    0.00000
        201    19   -7.316236   -7.315940    0.000297   1.000    0.00035    0.00000
        202    20   -7.316236   -7.315940    0.000297   1.000    0.00035    0.00000
        203    20   -7.316236   -7.315940    0.000297   1.000    0.00035    0.00000
        204    20   -7.316236   -7.315940    0.000297   1.000    0.00035    0.00000
        205    20   -7.316236   -7.315940    0.000297   1.000    0.00035    0.00000
        206    20   -7.316236   -7.315940    0.000297   1.000    0.00035    0.00000
        207    20   -7.316236   -7.315940    0.000297   1.000    0.00035    0.00000
        208    19   -7.316236   -7.315939    0.000297   1.000    0.00035    0.00000
        209    20   -7.316236   -7.315939    0.000297   1.000    0.00035    0.00000
        210    20   -7.316236   -7.315939    0.000297   1.000    0.00035    0.00000
        211    20   -7.316236   -7.315939    0.000297   1.000    0.00035    0.00000
        212    20   -7.316236   -7.315939    0.000297   1.000    0.00035    0.00000
        213    20   -7.316236   -7.315939    0.000297   1.000    0.00035    0.00000
        214    19   -7.316236   -7.315939    0.000297   1.000    0.00035    0.00000
        215    19   -7.316236   -7.315939    0.000297   1.000    0.00035    0.00000
        216    19   -7.316236   -7.315939    0.000297   1.000    0.00035    0.00000
        217    20   -7.316236   -7.315939    0.000297   1.000    0.00035    0.00000
        218    20   -7.316236   -7.315939    0.000297   1.000    0.00035    0.00000
        219    20   -7.316236   -7.315939    0.000297   1.000    0.00035    0.00000
        220    20   -7.316236   -7.315939    0.000297   1.000    0.00035    0.00000
        221    20   -7.316236   -7.315939    0.000297   1.000    0.00035    0.00000
        222    20   -7.316236   -7.315939    0.000297   1.000    0.00035    0.00000
        223    20   -7.316236   -7.315939    0.000297   1.000    0.00035    0.00000
        224    19   -7.316236   -7.315939    0.000297   1.000    0.00035    0.00000
        225    20   -7.316236   -7.315939    0.000297   1.000    0.00035    0.00000
        226    19   -7.316236   -7.315939    0.000297   1.000    0.00035    0.00000
        227    20   -7.316236   -7.315939    0.000296   1.000    0.00035    0.00000
        228    20   -7.316236   -7.315939    0.000296   1.000    0.00035    0.00000
        229    20   -7.316236   -7.315939    0.000296   1.000    0.00035    0.00000
        230    20   -7.316236   -7.315939    0.000296   1.000    0.00035    0.00000
        231    19   -7.316236   -7.315939    0.000296   1.000    0.00035    0.00000
        232    20   -7.316236   -7.315939    0.000296   1.000    0.00035    0.00000
        233    19   -7.316236   -7.315939    0.000296   1.000    0.00035    0.00000
        234    19   -7.316236   -7.315939    0.000296   1.000    0.00035    0.00000
        235    19   -7.316236   -7.315939    0.000296   1.000    0.00035    0.00000
        236    20   -7.316236   -7.315939    0.000296   1.000    0.00035    0.00000
        237    19   -7.316236   -7.315939    0.000296   1.000    0.00035    0.00000
        238    20   -7.316236   -7.315939    0.000296   1.000    0.00035    0.00000
        239    20   -7.316236   -7.315939    0.000296   1.000    0.00035    0.00000
        240    19   -7.316236   -7.315939    0.000296   1.000    0.00035    0.00000
        241    20   -7.316235   -7.315939    0.000296   1.000    0.00035    0.00000
        242    19   -7.316235   -7.315939    0.000296   1.000    0.00035    0.00000
        243    20   -7.316235   -7.315939    0.000296   1.000    0.00035    0.00000
        244    20   -7.316235   -7.315939    0.000296   1.000    0.00035    0.00000
        245    20   -7.316235   -7.315939    0.000296   1.000    0.00035    0.00000
        246    20   -7.316235   -7.315939    0.000296   1.000    0.00035    0.00000
        247    20   -7.316235   -7.315939    0.000296   1.000    0.00035    0.00000
        248    19   -7.316235   -7.315939    0.000296   1.000    0.00035    0.00000
        249    20   -7.316235   -7.315939    0.000296   1.000    0.00035    0.00000
        250    20   -7.316235   -7.315939    0.000296   1.000    0.00035    0.00000
        251    20   -7.316235   -7.315939    0.000296   1.000    0.00035    0.00000
        252    20   -7.316235   -7.315939    0.000296   1.000    0.00035    0.00000
        253    19   -7.316235   -7.315939    0.000296   1.000    0.00035    0.00000
        254    19   -7.316235   -7.315939    0.000296   1.000    0.00035    0.00000
        255    18   -7.316235   -7.315939    0.000296   1.000    0.00035    0.00000
        256    20   -7.316235   -7.315939    0.000296   1.000    0.00035    0.00000
        257    19   -7.316235   -7.315939    0.000296   1.000    0.00035    0.00000
        258    20   -7.316235   -7.315939    0.000296   1.000    0.00035    0.00000
        259    20   -7.316235   -7.315939    0.000296   1.000    0.00035    0.00000
        260    19   -7.316235   -7.315939    0.000296   1.000    0.00035    0.00000
        261    19   -7.316235   -7.315939    0.000296   1.000    0.00035    0.00000
        262    20   -7.316235   -7.315939    0.000296   1.000    0.00035    0.00000
        263    20   -7.316235   -7.315939    0.000296   1.000    0.00035    0.00000
        264    20   -7.316235   -7.315939    0.000296   1.000    0.00035    0.00000
        265    19   -7.316235   -7.315939    0.000296   1.000    0.00035    0.00000
        266    19   -7.316235   -7.315939    0.000296   1.000    0.00035    0.00000
        267    20   -7.316235   -7.315939    0.000296   1.000    0.00035    0.00000
        268    19   -7.316235   -7.315939    0.000296   1.000    0.00035    0.00000
        269    20   -7.316235   -7.315939    0.000296   1.000    0.00035    0.00000
        270    20   -7.316235   -7.315939    0.000296   1.000    0.00035    0.00000
        271    19   -7.316235   -7.315939    0.000296   1.000    0.00035    0.00000
        272    18   -7.316235   -7.315939    0.000296   1.000    0.00035    0.00000
        273    19   -7.316235   -7.315939    0.000296   1.000    0.00035    0.00000
        274    19   -7.316235   -7.315939    0.000296   1.000    0.00035    0.00000
        275    18   -7.316235   -7.315939    0.000296   1.000    0.00035    0.00000
        276    20   -7.316235   -7.315939    0.000296   1.000    0.00035    0.00000
        277    20   -7.316235   -7.315939    0.000296   1.000    0.00035    0.00000
        278    19   -7.316235   -7.315939    0.000296   1.000    0.00035    0.00000
        279    19   -7.316235   -7.315939    0.000296   1.000    0.00035    0.00000
        280    20   -7.316235   -7.315939    0.000296   1.000    0.00035    0.00000
        281    20   -7.316235   -7.315939    0.000296   1.000    0.00035    0.00000
        282    20   -7.316235   -7.315939    0.000296   1.000    0.00035    0.00000
        283    20   -7.316235   -7.315939    0.000296   1.000    0.00035    0.00000
        284    20   -7.316235   -7.315939    0.000296   1.000    0.00035    0.00000
        285    19   -7.316235   -7.315939    0.000296   1.000    0.00035    0.00000
        286    19   -7.316235   -7.315938    0.000296   1.000    0.00035    0.00000
        287    20   -7.316235   -7.315938    0.000296   1.000    0.00035    0.00000
        288    20   -7.316235   -7.315938    0.000296   1.000    0.00035    0.00000
        289    20   -7.316235   -7.315938    0.000296   1.000    0.00035    0.00000
        290    20   -7.316235   -7.315938    0.000296   1.000    0.00035    0.00000
        291    20   -7.316235   -7.315938    0.000296   1.000    0.00035    0.00000
        292    19   -7.316235   -7.315938    0.000296   1.000    0.00035    0.00000
        293    20   -7.316235   -7.315938    0.000296   1.000    0.00035    0.00000
        294    20   -7.316235   -7.315938    0.000296   1.000    0.00035    0.00000
        295    20   -7.316235   -7.315938    0.000296   1.000    0.00035    0.00000
        296    20   -7.316234   -7.315938    0.000296   1.000    0.00035    0.00000
        297    20   -7.316234   -7.315938    0.000296   1.000    0.00035    0.00000
        298    20   -7.316234   -7.315938    0.000296   1.000    0.00035    0.00000
        299    20   -7.316234   -7.315938    0.000296   1.000    0.00035    0.00000
        300    20   -7.316234   -7.315938    0.000296   1.000    0.00035    0.00000
        301    20   -7.316234   -7.315938    0.000296   1.000    0.00035    0.00000
        302    20   -7.316234   -7.315938    0.000296   1.000    0.00035    0.00000
        303    20   -7.316234   -7.315938    0.000296   1.000    0.00035    0.00000
        304    20   -7.316234   -7.315938    0.000296   1.000    0.00035    0.00000
        305    19   -7.316234   -7.315938    0.000296   1.000    0.00035    0.00000
        306    19   -7.316234   -7.315938    0.000296   1.000    0.00035    0.00000
        307    18   -7.316234   -7.315938    0.000296   1.000    0.00035    0.00000
        308    20   -7.316234   -7.315938    0.000296   1.000    0.00035    0.00000
        309    20   -7.316234   -7.315938    0.000296   1.000    0.00035    0.00000
        310    20   -7.316234   -7.315938    0.000296   1.000    0.00035    0.00000
        311    20   -7.316234   -7.315938    0.000296   1.000    0.00035    0.00000
        312    20   -7.316234   -7.315938    0.000296   1.000    0.00035    0.00000
        313    20   -7.316234   -7.315938    0.000296   1.000    0.00035    0.00000
        314    20   -7.316234   -7.315938    0.000296   1.000    0.00035    0.00000
        315    19   -7.316234   -7.315938    0.000296   1.000    0.00035    0.00000
        316    20   -7.316234   -7.315938    0.000296   1.000    0.00035    0.00000
        317    20   -7.316234   -7.315938    0.000296   1.000    0.00035    0.00000
        318    20   -7.316234   -7.315938    0.000296   1.000    0.00035    0.00000
        319    20   -7.316234   -7.315938    0.000296   1.000    0.00035    0.00000
        320    19   -7.316234   -7.315938    0.000296   1.000    0.00035    0.00000
        321    18   -7.316234   -7.315938    0.000296   1.000    0.00035    0.00000
        322    19   -7.316234   -7.315938    0.000296   1.000    0.00035    0.00000
        323    18   -7.316234   -7.315938    0.000296   1.000    0.00035    0.00000
        324    20   -7.316234   -7.315938    0.000296   1.000    0.00035    0.00000
        325    20   -7.316234   -7.315938    0.000296   1.000    0.00035    0.00000
        326    20   -7.316234   -7.315938    0.000296   1.000    0.00035    0.00000
        327    20   -7.316234   -7.315938    0.000296   1.000    0.00035    0.00000
        328    20   -7.316234   -7.315938    0.000296   1.000    0.00035    0.00000
        329    20   -7.316234   -7.315938    0.000296   1.000    0.00035    0.00000
        330    20   -7.316234   -7.315938    0.000296   1.000    0.00035    0.00000
        331    20   -7.316234   -7.315938    0.000296   1.000    0.00035    0.00000
        332    20   -7.316234   -7.315938    0.000296   1.000    0.00035    0.00000
        333    20   -7.316234   -7.315938    0.000296   1.000    0.00035    0.00000
        334    20   -7.316234   -7.315938    0.000296   1.000    0.00035    0.00000
        335    20   -7.316234   -7.315938    0.000296   1.000    0.00035    0.00000
        336    20   -7.316234   -7.315938    0.000296   1.000    0.00035    0.00000
        337    19   -7.316234   -7.315938    0.000296   1.000    0.00035    0.00000
        338    20   -7.316234   -7.315938    0.000296   1.000    0.00035    0.00000
        339    20   -7.316234   -7.315938    0.000296   1.000    0.00035    0.00000
        340    20   -7.316234   -7.315938    0.000296   1.000    0.00035    0.00000
        341    20   -7.316234   -7.315938    0.000296   1.000    0.00035    0.00000
        342    19   -7.316234   -7.315938    0.000296   1.000    0.00035    0.00000
        343    20   -7.316234   -7.315938    0.000296   1.000    0.00035    0.00000
        344    20   -7.316234   -7.315938    0.000296   1.000    0.00035    0.00000
        345    19   -7.316234   -7.315938    0.000296   1.000    0.00035    0.00000
        346    19   -7.316234   -7.315938    0.000296   1.000    0.00035    0.00000
        347    20   -7.316234   -7.315938    0.000296   1.000    0.00035    0.00000
        348    19   -7.316234   -7.315938    0.000296   1.000    0.00035    0.00000
        349    19   -7.316234   -7.315938    0.000296   1.000    0.00035    0.00000
        350    20   -7.316234   -7.315938    0.000296   1.000    0.00035    0.00000
        351    20   -7.316233   -7.315938    0.000296   1.000    0.00035    0.00000
        352    20   -7.316233   -7.315938    0.000296   1.000    0.00035    0.00000
        353    20   -7.316233   -7.315938    0.000296   1.000    0.00035    0.00000
        354    20   -7.316233   -7.315938    0.000296   1.000    0.00035    0.00000
        355    19   -7.316233   -7.315938    0.000296   1.000    0.00035    0.00000
        356    19   -7.316233   -7.315938    0.000296   1.000    0.00035    0.00000
        357    20   -7.316233   -7.315938    0.000296   1.000    0.00035    0.00000
        358    20   -7.316233   -7.315938    0.000296   1.000    0.00035    0.00000
        359    20   -7.316233   -7.315938    0.000296   1.000    0.00035    0.00000
        360    20   -7.316233   -7.315938    0.000296   1.000    0.00035    0.00000
        361    20   -7.316233   -7.315938    0.000296   1.000    0.00035    0.00000
        362    20   -7.316233   -7.315938    0.000296   1.000    0.00035    0.00000
        363    19   -7.316233   -7.315938    0.000296   1.000    0.00035    0.00000
        364    20   -7.316233   -7.315938    0.000296   1.000    0.00035    0.00000
        365    20   -7.316233   -7.315938    0.000296   1.000    0.00035    0.00000
        366    20   -7.316233   -7.315937    0.000296   1.000    0.00035    0.00000
        367    20   -7.316233   -7.315937    0.000296   1.000    0.00035    0.00000
        368    20   -7.316233   -7.315937    0.000296   1.000    0.00035    0.00000
        369    20   -7.316233   -7.315937    0.000296   1.000    0.00035    0.00000
        370    20   -7.316233   -7.315937    0.000296   1.000    0.00035    0.00000
        371    20   -7.316233   -7.315937    0.000296   1.000    0.00035    0.00000
        372    20   -7.316233   -7.315937    0.000296   1.000    0.00035    0.00000
        373    19   -7.316233   -7.315937    0.000296   1.000    0.00035    0.00000
        374    20   -7.316233   -7.315937    0.000296   1.000    0.00035    0.00000
        375    20   -7.316233   -7.315937    0.000296   1.000    0.00035    0.00000
        376    20   -7.316233   -7.315937    0.000296   1.000    0.00035    0.00000
        377    20   -7.316233   -7.315937    0.000296   1.000    0.00035    0.00000
        378    19   -7.316233   -7.315937    0.000296   1.000    0.00035    0.00000
        379    20   -7.316233   -7.315937    0.000296   1.000    0.00035    0.00000
        380    19   -7.316233   -7.315937    0.000296   1.000    0.00035    0.00000
        381    19   -7.316233   -7.315937    0.000296   1.000    0.00035    0.00000
        382    20   -7.316233   -7.315937    0.000296   1.000    0.00035    0.00000
        383    19   -7.316233   -7.315937    0.000296   1.000    0.00035    0.00000
        384    20   -7.316233   -7.315937    0.000296   1.000    0.00035    0.00000
        385    20   -7.316233   -7.315937    0.000296   1.000    0.00035    0.00000
        386    20   -7.316233   -7.315937    0.000296   1.000    0.00035    0.00000
        387    20   -7.316233   -7.315937    0.000296   1.000    0.00035    0.00000
        388    20   -7.316233   -7.315937    0.000296   1.000    0.00035    0.00000
        389    19   -7.316233   -7.315937    0.000296   1.000    0.00035    0.00000
        390    20   -7.316233   -7.315937    0.000296   1.000    0.00035    0.00000
        391    20   -7.316233   -7.315937    0.000296   1.000    0.00035    0.00000
        392    19   -7.316233   -7.315937    0.000296   1.000    0.00035    0.00000
        393    20   -7.316233   -7.315937    0.000296   1.000    0.00035    0.00000
        394    20   -7.316233   -7.315937    0.000296   1.000    0.00035    0.00000
        395    20   -7.316233   -7.315937    0.000296   1.000    0.00035    0.00000
        396    20   -7.316233   -7.315937    0.000296   1.000    0.00035    0.00000
        397    19   -7.316233   -7.315937    0.000296   1.000    0.00035    0.00000
        398    20   -7.316233   -7.315937    0.000296   1.000    0.00035    0.00000
        399    20   -7.316233   -7.315937    0.000296   1.000    0.00035    0.00000
        400    20   -7.316233   -7.315937    0.000296   1.000    0.00035    0.00000
        401    20   -7.316233   -7.315937    0.000296   1.000    0.00035    0.00000
        402    20   -7.316233   -7.315937    0.000296   1.000    0.00035    0.00000
        403    19   -7.316233   -7.315937    0.000296   1.000    0.00035    0.00000
        404    19   -7.316233   -7.315937    0.000296   1.000    0.00035    0.00000
        405    20   -7.316233   -7.315937    0.000296   1.000    0.00035    0.00000
        406    20   -7.316232   -7.315937    0.000296   1.000    0.00035    0.00000
        407    19   -7.316232   -7.315937    0.000296   1.000    0.00035    0.00000
        408    20   -7.316232   -7.315937    0.000295   1.000    0.00035    0.00000
        409    20   -7.316232   -7.315937    0.000295   1.000    0.00035    0.00000
        410    19   -7.316232   -7.315937    0.000295   1.000    0.00035    0.00000
        411    20   -7.316232   -7.315937    0.000295   1.000    0.00035    0.00000
        412    20   -7.316232   -7.315937    0.000295   1.000    0.00035    0.00000
        413    20   -7.316232   -7.315937    0.000295   1.000    0.00035    0.00000
        414    19   -7.316232   -7.315937    0.000295   1.000    0.00035    0.00000
        415    20   -7.316232   -7.315937    0.000295   1.000    0.00035    0.00000
        416    19   -7.316232   -7.315937    0.000295   1.000    0.00035    0.00000
        417    20   -7.316232   -7.315937    0.000295   1.000    0.00035    0.00000
        418    20   -7.316232   -7.315937    0.000295   1.000    0.00035    0.00000
        419    20   -7.316232   -7.315937    0.000295   1.000    0.00035    0.00000
        420    20   -7.316232   -7.315937    0.000295   1.000    0.00035    0.00000
        421    20   -7.316232   -7.315937    0.000295   1.000    0.00035    0.00000
        422    20   -7.316232   -7.315937    0.000295   1.000    0.00035    0.00000
        423    20   -7.316232   -7.315937    0.000295   1.000    0.00035    0.00000
        424    20   -7.316232   -7.315937    0.000295   1.000    0.00035    0.00000
        425    20   -7.316232   -7.315937    0.000295   1.000    0.00035    0.00000
        426    20   -7.316232   -7.315937    0.000295   1.000    0.00035    0.00000
        427    20   -7.316232   -7.315937    0.000295   1.000    0.00035    0.00000
        428    20   -7.316232   -7.315937    0.000295   1.000    0.00035    0.00000
        429    19   -7.316232   -7.315937    0.000295   1.000    0.00035    0.00000
        430    18   -7.316232   -7.315937    0.000295   1.000    0.00035    0.00000
        431    19   -7.316232   -7.315937    0.000295   1.000    0.00035    0.00000
        432    19   -7.316232   -7.315937    0.000295   1.000    0.00035    0.00000
        433    20   -7.316232   -7.315937    0.000295   1.000    0.00035    0.00000
        434    20   -7.316232   -7.315937    0.000295   1.000    0.00035    0.00000
        435    20   -7.316232   -7.315937    0.000295   1.000    0.00035    0.00000
        436    20   -7.316232   -7.315937    0.000295   1.000    0.00035    0.00000
        437    20   -7.316232   -7.315937    0.000295   1.000    0.00035    0.00000
        438    20   -7.316232   -7.315937    0.000295   1.000    0.00035    0.00000
        439    20   -7.316232   -7.315937    0.000295   1.000    0.00035    0.00000
        440    20   -7.316232   -7.315937    0.000295   1.000    0.00035    0.00000
        441    20   -7.316232   -7.315937    0.000295   1.000    0.00035    0.00000
        442    20   -7.316232   -7.315937    0.000295   1.000    0.00035    0.00000
        443    20   -7.316232   -7.315937    0.000295   1.000    0.00035    0.00000
        444    20   -7.316232   -7.315937    0.000295   1.000    0.00035    0.00000
        445    19   -7.316232   -7.315937    0.000295   1.000    0.00035    0.00000
        446    19   -7.316232   -7.315936    0.000295   1.000    0.00035    0.00000
        447    20   -7.316232   -7.315936    0.000295   1.000    0.00035    0.00000
        448    20   -7.316232   -7.315936    0.000295   1.000    0.00035    0.00000
        449    20   -7.316232   -7.315936    0.000295   1.000    0.00035    0.00000
        450    20   -7.316232   -7.315936    0.000295   1.000    0.00035    0.00000
        451    20   -7.316232   -7.315936    0.000295   1.000    0.00035    0.00000
        452    19   -7.316232   -7.315936    0.000295   1.000    0.00035    0.00000
        453    20   -7.316232   -7.315936    0.000295   1.000    0.00035    0.00000
        454    20   -7.316232   -7.315936    0.000295   1.000    0.00035    0.00000
        455    20   -7.316232   -7.315936    0.000295   1.000    0.00035    0.00000
        456    19   -7.316232   -7.315936    0.000295   1.000    0.00035    0.00000
        457    19   -7.316232   -7.315936    0.000295   1.000    0.00035    0.00000
        458    20   -7.316232   -7.315936    0.000295   1.000    0.00035    0.00000
        459    20   -7.316232   -7.315936    0.000295   1.000    0.00035    0.00000
        460    20   -7.316232   -7.315936    0.000295   1.000    0.00035    0.00000
        461    20   -7.316232   -7.315936    0.000295   1.000    0.00035    0.00000
        462    20   -7.316231   -7.315936    0.000295   1.000    0.00035    0.00000
        463    20   -7.316231   -7.315936    0.000295   1.000    0.00035    0.00000
        464    19   -7.316231   -7.315936    0.000295   1.000    0.00035    0.00000
        465    20   -7.316231   -7.315936    0.000295   1.000    0.00035    0.00000
        466    20   -7.316231   -7.315936    0.000295   1.000    0.00035    0.00000
        467    20   -7.316231   -7.315936    0.000295   1.000    0.00035    0.00000
        468    20   -7.316231   -7.315936    0.000295   1.000    0.00035    0.00000
        469    20   -7.316231   -7.315936    0.000295   1.000    0.00035    0.00000
        470    20   -7.316231   -7.315936    0.000295   1.000    0.00035    0.00000
        471    20   -7.316231   -7.315936    0.000295   1.000    0.00035    0.00000
        472    20   -7.316231   -7.315936    0.000295   1.000    0.00035    0.00000
        473    20   -7.316231   -7.315936    0.000295   1.000    0.00035    0.00000
        474    20   -7.316231   -7.315936    0.000295   1.000    0.00035    0.00000
        475    20   -7.316231   -7.315936    0.000295   1.000    0.00035    0.00000
        476    20   -7.316231   -7.315936    0.000295   1.000    0.00035    0.00000
        477    20   -7.316231   -7.315936    0.000295   1.000    0.00035    0.00000
        478    19   -7.316231   -7.315936    0.000295   1.000    0.00035    0.00000
        479    20   -7.316231   -7.315936    0.000295   1.000    0.00035    0.00000
        480    19   -7.316231   -7.315936    0.000295   1.000    0.00035    0.00000
        481    19   -7.316231   -7.315936    0.000295   1.000    0.00035    0.00000
        482    20   -7.316231   -7.315936    0.000295   1.000    0.00035    0.00000
        483    20   -7.316231   -7.315936    0.000295   1.000    0.00035    0.00000
        484    20   -7.316231   -7.315936    0.000295   1.000    0.00035    0.00000
        485    20   -7.316231   -7.315936    0.000295   1.000    0.00035    0.00000
        486    20   -7.316231   -7.315936    0.000295   1.000    0.00035    0.00000
        487    20   -7.316231   -7.315936    0.000295   1.000    0.00035    0.00000
        488    20   -7.316231   -7.315936    0.000295   1.000    0.00035    0.00000
        489    20   -7.316231   -7.315936    0.000295   1.000    0.00035    0.00000
        490    20   -7.316231   -7.315936    0.000295   1.000    0.00035    0.00000
        491    20   -7.316231   -7.315936    0.000295   1.000    0.00035    0.00000
        492    20   -7.316231   -7.315936    0.000295   1.000    0.00035    0.00000
        493    20   -7.316231   -7.315936    0.000295   1.000    0.00035    0.00000
        494    20   -7.316231   -7.315936    0.000295   1.000    0.00035    0.00000
        495    20   -7.316231   -7.315936    0.000295   1.000    0.00035    0.00000
        496    19   -7.316231   -7.315936    0.000295   1.000    0.00035    0.00000
        497    18   -7.316231   -7.315936    0.000295   1.000    0.00035    0.00000
        498    20   -7.316231   -7.315936    0.000295   1.000    0.00035    0.00000
        499    20   -7.316231   -7.315936    0.000295   1.000    0.00035    0.00000
        500    20   -7.316231   -7.315936    0.000295 396.303    0.00035    0.00000
        501    21   -7.316231   -7.315932    0.000299 396.303    0.00035    0.00037
        502    18   -7.316231   -7.315923    0.000307 396.303    0.00035    0.00070
        503    18   -7.316231   -7.315924    0.000307 396.303    0.00035    0.00103
        504    18   -7.316231   -7.315934    0.000296 396.303    0.00035    0.00138
        505    19   -7.316235   -7.315951    0.000284 396.303    0.00034    0.00219
        506    18   -7.316238   -7.317963    0.001725 396.303    0.00034    0.00442
        507    19   -7.316231   -7.324746    0.008515 396.303    0.00034    0.00717
        508    18   -7.316242   -7.331373    0.015131 396.303    0.00033    0.00939
        509    20   -7.316234   -7.336869    0.020634 396.303    0.00032    0.01100
        510    20   -7.316230   -7.340996    0.024766 396.303    0.00031    0.01182
        511    20   -7.316217   -7.341576    0.025359 396.303    0.00030    0.01187
        512    19   -7.316210   -7.339374    0.023163 396.303    0.00030    0.01197
        513    19   -7.316224   -7.335486    0.019262 396.303    0.00029    0.01240
        514    20   -7.316221   -7.334262    0.018041 396.303    0.00028    0.01135
        515    20   -7.316217   -7.329487    0.013270 396.303    0.00027    0.01875
        516    21   -7.316123   -7.357738    0.041615 396.303    0.00025    0.01848
        517    19   -7.316088   -7.353170    0.037082 396.303    0.00022    0.01861
        518    18   -7.316074   -7.357888    0.041814 396.303    0.00018    0.02164
        519    20   -7.316034   -7.359730    0.043696 396.303    0.00016    0.02077
        520    18   -7.316006   -7.361765    0.045759 396.303    0.00015    0.02012
        521    18   -7.315979   -7.361403    0.045425 396.303    0.00013    0.02013
        522    18   -7.315960   -7.361151    0.045191 396.303    0.00012    0.02010
        523    19   -7.315942   -7.359896    0.043954 396.303    0.00012    0.01955
        524    16   -7.315923   -7.358437    0.042514 396.303    0.00011    0.01859
        525    15   -7.315901   -7.355937    0.040036 396.303    0.00011    0.01725
        526    18   -7.315878   -7.352434    0.036555 396.303    0.00012    0.01567
        527    18   -7.315857   -7.347759    0.031902 396.303    0.00012    0.01405
        528    17   -7.315837   -7.342326    0.026489 396.303    0.00012    0.01397
        529    19   -7.315822   -7.336791    0.020969 396.303    0.00013    0.01236
        530    21   -7.315814   -7.331597    0.015783 396.303    0.00013    0.01056
        531    16   -7.315809   -7.326588    0.010779 396.303    0.00013    0.00959
        532    18   -7.315806   -7.321993    0.006187 396.303    0.00013    0.00901
        533    18   -7.315810   -7.317937    0.002128 396.303    0.00013    0.00793
        534    18   -7.315817   -7.314155    0.001661 396.303    0.00012    0.00786
        535    18   -7.315825   -7.310580    0.005245 396.303    0.00012    0.00860
        536    19   -7.315835   -7.307336    0.008500 396.303    0.00012    0.00895
        537    18   -7.315847   -7.304529    0.011318 396.303    0.00011    0.00881
        538    19   -7.315858   -7.302227    0.013630 396.303    0.00011    0.00866
        539    16   -7.315866   -7.300442    0.015425 396.303    0.00011    0.00872
        540    18   -7.315873   -7.299112    0.016761 396.303    0.00010    0.00905
        541    17   -7.315878   -7.298141    0.017737 396.303    0.00010    0.00963
        542    16   -7.315883   -7.297422    0.018461 396.303    0.00009    0.01035
        543    16   -7.315888   -7.296888    0.019000 396.303    0.00008    0.01097
        544    18   -7.315893   -7.296517    0.019376 396.303    0.00008    0.01132
        545    17   -7.315899   -7.296338    0.019561 396.303    0.00008    0.01130
        546    16   -7.315906   -7.296410    0.019496 396.303    0.00008    0.01094
        547    15   -7.315913   -7.296805    0.019108 396.303    0.00008    0.01032
        548    19   -7.315921   -7.297593    0.018328 396.303    0.00008    0.00961
        549    18   -7.315929   -7.298809    0.017120 396.303    0.00009    0.00893
        550    19   -7.315938   -7.300484    0.015454 396.303    0.00009    0.00839
        551    18   -7.315947   -7.302604    0.013342 396.303    0.00009    0.00797
        552    18   -7.315955   -7.305141    0.010814 396.303    0.00010    0.00761
        553    19   -7.315962   -7.308033    0.007928 396.303    0.00010    0.00724
        554    18   -7.315967   -7.311199    0.004768 396.303    0.00010    0.00685
        555    19   -7.315969   -7.314536    0.001434 396.303    0.00010    0.00654
        556    20   -7.315969   -7.317929    0.001959 396.303    0.00010    0.00644
        557    19   -7.315967   -7.321255    0.005288 396.303    0.00010    0.00665
        558    20   -7.315962   -7.324394    0.008432 396.303    0.00009    0.00714
        559    19   -7.315955   -7.327232    0.011277 396.303    0.00009    0.00779
        560    19   -7.315946   -7.329676    0.013730 396.303    0.00008    0.00845
        561    19   -7.315936   -7.331655    0.015719 396.303    0.00008    0.00902
        562    19   -7.315925   -7.333126    0.017201 396.303    0.00007    0.00944
        563    16   -7.315913   -7.334071    0.018157 396.303    0.00007    0.00970
        564    15   -7.315902   -7.334498    0.018595 396.303    0.00007    0.00982
        565    16   -7.315891   -7.334432    0.018540 396.303    0.00007    0.00982
        566    18   -7.315882   -7.333906    0.018025 396.303    0.00007    0.00972
        567    19   -7.315873   -7.332974    0.017102 396.303    0.00007    0.00953
        568    18   -7.315865   -7.331678    0.015813 396.303    0.00008    0.00923
        569    16   -7.315858   -7.330072    0.014213 396.303    0.00008    0.00884
        570    20   -7.315853   -7.328199    0.012346 396.303    0.00008    0.00837
        571    19   -7.315847   -7.326108    0.010261 396.303    0.00008    0.00797
        572    20   -7.315845   -7.324111    0.008266 396.303    0.00008    0.00784
        573    19   -7.315849   -7.322201    0.006352 396.303    0.00008    0.00772
        574    17   -7.315852   -7.320173    0.004321 396.303    0.00008    0.00782
        575    19   -7.315855   -7.318169    0.002314 396.303    0.00007    0.00813
        576    18   -7.315859   -7.316319    0.000460 396.303    0.00007    0.00852
        577    19   -7.315864   -7.314724    0.001140 396.303    0.00007    0.00884
        578    18   -7.315870   -7.313465    0.002404 396.303    0.00006    0.00900
        579    18   -7.315876   -7.312562    0.003314 396.303    0.00006    0.00897
        580    17   -7.315883   -7.311986    0.003897 396.303    0.00006    0.00877
        581    16   -7.315891   -7.311699    0.004192 396.303    0.00006    0.00844
        582    14   -7.315898   -7.311676    0.004222 396.303    0.00006    0.00801
        583    16   -7.315904   -7.311905    0.003999 396.303    0.00007    0.00753
        584    20   -7.315909   -7.312373    0.003536 396.303    0.00007    0.00710
        585    18   -7.315912   -7.313041    0.002871 396.303    0.00007    0.00677
        586    19   -7.315914   -7.313859    0.002055 396.303    0.00007    0.00660
        587    19   -7.315914   -7.314754    0.001160 396.303    0.00007    0.00659
        588    18   -7.315912   -7.315649    0.000264 396.303    0.00007    0.00671
        589    19   -7.315910   -7.316467    0.000558 396.303    0.00006    0.00693
        590    18   -7.315906   -7.317145    0.001239 396.303    0.00006    0.00717
        591    17   -7.315901   -7.317627    0.001726 396.303    0.00006    0.00740
        592    15   -7.315895   -7.317920    0.002025 396.303    0.00006    0.00759
        593    17   -7.315889   -7.318046    0.002158 396.303    0.00006    0.00768
        594    16   -7.315882   -7.317871    0.001989 396.303    0.00006    0.00766
        595    17   -7.315876   -7.317360    0.001484 396.303    0.00006    0.00756
        596    19   -7.315871   -7.316568    0.000697 396.303    0.00006    0.00741
        597    19   -7.315867   -7.315593    0.000274 396.303    0.00006    0.00722
        598    19   -7.315863   -7.314520    0.001343 396.303    0.00006    0.00709
        599    19   -7.315863   -7.313583    0.002280 396.303    0.00006    0.00703
        600    19   -7.315866   -7.312715    0.003151 396.303    0.00005    0.00702
        601    19   -7.315869   -7.311952    0.003917 396.303    0.00005    0.00717
        602    19   -7.315876   -7.311474    0.004402 396.303    0.00005    0.00728
        603    16   -7.315882   -7.311064    0.004819 396.303    0.00005    0.00738
        604    18   -7.315890   -7.310960    0.004930 396.303    0.00005    0.00744
        605    17   -7.315896   -7.311099    0.004797 396.303    0.00005    0.00743
        606    15   -7.315902   -7.311582    0.004320 396.303    0.00005    0.00734
        607    16   -7.315907   -7.312353    0.003555 396.303    0.00005    0.00718
        608    18   -7.315911   -7.313382    0.002529 396.303    0.00006    0.00698
        609    20   -7.315914   -7.314564    0.001350 396.303    0.00006    0.00681
        610    20   -7.315915   -7.315815    0.000100 396.303    0.00006    0.00671
        611    20   -7.315914   -7.317038    0.001123 396.303    0.00006    0.00669
        612    20   -7.315912   -7.318161    0.002249 396.303    0.00006    0.00674
        613    20   -7.315908   -7.319125    0.003217 396.303    0.00005    0.00683
        614    19   -7.315903   -7.319891    0.003988 396.303    0.00005    0.00694
        615    16   -7.315897   -7.320435    0.004538 396.303    0.00005    0.00702
        616    16   -7.315891   -7.320749    0.004858 396.303    0.00005    0.00706
        617    18   -7.315885   -7.320837    0.004952 396.303    0.00005    0.00705
        618    19   -7.315880   -7.320720    0.004840 396.303    0.00005    0.00701
        619    18   -7.315876   -7.320428    0.004552 396.303    0.00005    0.00696
        620    19   -7.315873   -7.320000    0.004127 396.303    0.00005    0.00691
        621    18   -7.315872   -7.319482    0.003611 396.303    0.00005    0.00688
        622    19   -7.315871   -7.318924    0.003053 396.303    0.00005    0.00689
        623    19   -7.315872   -7.318376    0.002504 396.303    0.00005    0.00693
        624    19   -7.315874   -7.317882    0.002008 396.303    0.00005    0.00698
        625    18   -7.315876   -7.317482    0.001605 396.303    0.00005    0.00703
        626    17   -7.315879   -7.317201    0.001322 396.303    0.00005    0.00706
        627    17   -7.315882   -7.317054    0.001172 396.303    0.00005    0.00706
        628    16   -7.315885   -7.317039    0.001154 396.303    0.00005    0.00703
        629    18   -7.315888   -7.317144    0.001256 396.303    0.00005    0.00697
        630    16   -7.315889   -7.317343    0.001454 396.303    0.00005    0.00690
        631    16   -7.315891   -7.317605    0.001715 396.303    0.00005    0.00682
        632    16   -7.315891   -7.317895    0.002004 396.303    0.00005    0.00676
        633    16   -7.315890   -7.318175    0.002285 396.303    0.00005    0.00672
        634    17   -7.315889   -7.318410    0.002522 396.303    0.00005    0.00670
        635    16   -7.315886   -7.318572    0.002685 396.303    0.00005    0.00669
        636    16   -7.315884   -7.318637    0.002753 396.303    0.00005    0.00668
        637    18   -7.315881   -7.318590    0.002709 396.303    0.00004    0.00668
        638    16   -7.315878   -7.318425    0.002548 396.303    0.00004    0.00666
        639    17   -7.315875   -7.318146    0.002271 396.303    0.00004    0.00663
        640    18   -7.315872   -7.317762    0.001890 396.303    0.00004    0.00660
        641    18   -7.315870   -7.317293    0.001423 396.303    0.00004    0.00657
        642    17   -7.315869   -7.316763    0.000894 396.303    0.00004    0.00654
        643    17   -7.315868   -7.316200    0.000331 396.303    0.00004    0.00652
        644    18   -7.315869   -7.315632    0.000236 396.303    0.00004    0.00651
        645    18   -7.315869   -7.315090    0.000780 396.303    0.00004    0.00651
        646    17   -7.315871   -7.314597    0.001274 396.303    0.00004    0.00653
        647    16   -7.315872   -7.314175    0.001697 396.303    0.00004    0.00654
        648    18   -7.315874   -7.313838    0.002036 396.303    0.00004    0.00655
        649    18   -7.315876   -7.313595    0.002281 396.303    0.00004    0.00655
        650    17   -7.315878   -7.313445    0.002433 396.303    0.00004    0.00655
        651    17   -7.315880   -7.313384    0.002496 396.303    0.00004    0.00653
        652    16   -7.315882   -7.313399    0.002482 396.303    0.00004    0.00652
        653    17   -7.315883   -7.313476    0.002407 396.303    0.00004    0.00650
        654    16   -7.315884   -7.313595    0.002289 396.303    0.00004    0.00648
        655    18   -7.315884   -7.313737    0.002147 396.303    0.00004    0.00647
        656    16   -7.315884   -7.313883    0.002000 396.303    0.00004    0.00647
        657    17   -7.315883   -7.314016    0.001868 396.303    0.00004    0.00647
        658    16   -7.315882   -7.314120    0.001762 396.303    0.00004    0.00647
        659    17   -7.315881   -7.314187    0.001695 396.303    0.00004    0.00647
        660    16   -7.315880   -7.314209    0.001671 396.303    0.00004    0.00646
        661    17   -7.315879   -7.314187    0.001692 396.303    0.00004    0.00645
        662    16   -7.315878   -7.314125    0.001753 396.303    0.00004    0.00644
        663    18   -7.315877   -7.314029    0.001848 396.303    0.00004    0.00642
        664    18   -7.315877   -7.313912    0.001965 396.303    0.00004    0.00640
        665    18   -7.315876   -7.313785    0.002091 396.303    0.00004    0.00639
        666    18   -7.315877   -7.313664    0.002212 396.303    0.00004    0.00638
        667    18   -7.315877   -7.313562    0.002316 396.303    0.00004    0.00637
        668    18   -7.315878   -7.313490    0.002388 396.303    0.00004    0.00636
        669    17   -7.315879   -7.313459    0.002419 396.303    0.00004    0.00635
        670    18   -7.315880   -7.313477    0.002403 396.303    0.00004    0.00634
        671    17   -7.315881   -7.313545    0.002336 396.303    0.00004    0.00633
        672    16   -7.315882   -7.313666    0.002217 396.303    0.00004    0.00632
        673    16   -7.315883   -7.313833    0.002050 396.303    0.00004    0.00630
        674    18   -7.315884   -7.314042    0.001842 396.303    0.00004    0.00629
        675    16   -7.315884   -7.314283    0.001602 396.303    0.00004    0.00627
        676    16   -7.315885   -7.314545    0.001340 396.303    0.00004    0.00626
        677    16   -7.315885   -7.314817    0.001068 396.303    0.00004    0.00624
        678    17   -7.315884   -7.315087    0.000798 396.303    0.00004    0.00623
        679    16   -7.315884   -7.315344    0.000540 396.303    0.00004    0.00622
        680    16   -7.315883   -7.315579    0.000304 396.303    0.00004    0.00622
        681    16   -7.315882   -7.315786    0.000096 396.303    0.00004    0.00621
        682    17   -7.315882   -7.315959    0.000078 396.303    0.00004    0.00620
        683    16   -7.315881   -7.316097    0.000217 396.303    0.00004    0.00619
        684    16   -7.315880   -7.316201    0.000321 396.303    0.00004    0.00618
        685    16   -7.315879   -7.316273    0.000394 396.303    0.00004    0.00617
        686    16   -7.315878   -7.316317    0.000439 396.303    0.00004    0.00616
        687    17   -7.315878   -7.316341    0.000464 396.303    0.00004    0.00615
        688    16   -7.315877   -7.316351    0.000474 396.303    0.00003    0.00614
        689    18   -7.315877   -7.316354    0.000477 396.303    0.00003    0.00613
        690    17   -7.315877   -7.316357    0.000480 396.303    0.00003    0.00613
        691    18   -7.315877   -7.316365    0.000488 396.303    0.00003    0.00612
        692    17   -7.315877   -7.316383    0.000506 396.303    0.00003    0.00611
        693    17   -7.315877   -7.316412    0.000535 396.303    0.00003    0.00611
        694    17   -7.315877   -7.316454    0.000576 396.303    0.00003    0.00610
        695    16   -7.315878   -7.316507    0.000630 396.303    0.00003    0.00609
        696    16   -7.315878   -7.316569    0.000692 396.303    0.00003    0.00608
        697    17   -7.315878   -7.316637    0.000759 396.303    0.00003    0.00607
        698    16   -7.315877   -7.316704    0.000827 396.303    0.00003    0.00606
        699    16   -7.315877   -7.316767    0.000890 396.303    0.00003    0.00605
        700    16   -7.315877   -7.316819    0.000942 396.303    0.00003    0.00603
        701    17   -7.315876   -7.316856    0.000979 396.303    0.00003    0.00602
        702    16   -7.315876   -7.316873    0.000997 396.303    0.00003    0.00601
        703    17   -7.315875   -7.316868    0.000993 396.303    0.00003    0.00600
        704    16   -7.315874   -7.316838    0.000964 396.303    0.00003    0.00598
        705    16   -7.315874   -7.316784    0.000911 396.303    0.00003    0.00597
        706    18   -7.315873   -7.316707    0.000834 396.303    0.00003    0.00596
        707    16   -7.315872   -7.316608    0.000736 396.303    0.00003    0.00594
        708    18   -7.315872   -7.316491    0.000620 396.303    0.00003    0.00593
        709    17   -7.315871   -7.316361    0.000490 396.303    0.00003    0.00591
        710    17   -7.315871   -7.316223    0.000351 396.303    0.00003    0.00590
        711    18   -7.315871   -7.316080    0.000209 396.303    0.00003    0.00588
        712    18   -7.315871   -7.315937    0.000066 396.303    0.00003    0.00587
        713    18   -7.315871   -7.315800    0.000071 396.303    0.00003    0.00585
        714    18   -7.315871   -7.315670    0.000201 396.303    0.00003    0.00584
        715    18   -7.315871   -7.315551    0.000320 396.303    0.00003    0.00583
        716    17   -7.315871   -7.315445    0.000427 396.303    0.00003    0.00581
        717    17   -7.315872   -7.315351    0.000521 396.303    0.00003    0.00580
        718    17   -7.315872   -7.315270    0.000602 396.303    0.00003    0.00579
        719    16   -7.315872   -7.315199    0.000673 396.303    0.00003    0.00578
        720    16   -7.315872   -7.315139    0.000734 396.303    0.00003    0.00576
        721    18   -7.315872   -7.315085    0.000787 396.303    0.00003    0.00575
        722    16   -7.315872   -7.315036    0.000836 396.303    0.00003    0.00574
        723    18   -7.315872   -7.314989    0.000883 396.303    0.00003    0.00573
        724    16   -7.315872   -7.314943    0.000929 396.303    0.00003    0.00572
        725    18   -7.315872   -7.314895    0.000977 396.303    0.00003    0.00571
        726    17   -7.315872   -7.314845    0.001027 396.303    0.00003    0.00570
        727    17   -7.315872   -7.314792    0.001080 396.303    0.00003    0.00569
        728    16   -7.315871   -7.314736    0.001135 396.303    0.00003    0.00568
        729    18   -7.315871   -7.314679    0.001192 396.303    0.00003    0.00566
        730    16   -7.315871   -7.314622    0.001250 396.303    0.00003    0.00565
        731    18   -7.315871   -7.314566    0.001306 396.303    0.00003    0.00564
        732    18   -7.315871   -7.314514    0.001358 396.303    0.00003    0.00563
        733    17   -7.315871   -7.314467    0.001404 396.303    0.00003    0.00562
        734    16   -7.315871   -7.314429    0.001443 396.303    0.00003    0.00561
        735    17   -7.315872   -7.314399    0.001472 396.303    0.00003    0.00559
        736    16   -7.315872   -7.314382    0.001490 396.303    0.00003    0.00558
        737    18   -7.315872   -7.314376    0.001496 396.303    0.00003    0.00557
        738    16   -7.315872   -7.314383    0.001490 396.303    0.00003    0.00556
        739    17   -7.315872   -7.314402    0.001471 396.303    0.00003    0.00554
        740    16   -7.315873   -7.314432    0.001440 396.303    0.00003    0.00553
        741    16   -7.315873   -7.314474    0.001399 396.303    0.00003    0.00552
        742    17   -7.315873   -7.314524    0.001349 396.303    0.00003    0.00550
        743    17   -7.315873   -7.314582    0.001291 396.303    0.00003    0.00549
        744    16   -7.315873   -7.314645    0.001228 396.303    0.00003    0.00548
        745    16   -7.315873   -7.314711    0.001162 396.303    0.00003    0.00546
        746    17   -7.315873   -7.314779    0.001094 396.303    0.00003    0.00545
        747    16   -7.315873   -7.314847    0.001025 396.303    0.00003    0.00543
        748    16   -7.315873   -7.314914    0.000959 396.303    0.00003    0.00542
        749    18   -7.315873   -7.314979    0.000894 396.303    0.00003    0.00541
        750    16   -7.315872   -7.315040    0.000832 396.303    0.00003    0.00539
        751    17   -7.315872   -7.315099    0.000774 396.303    0.00003    0.00538
        752    16   -7.315872   -7.315154    0.000718 396.303    0.00003    0.00537
        753    16   -7.315872   -7.315207    0.000665 396.303    0.00003    0.00535
        754    16   -7.315872   -7.315258    0.000614 396.303    0.00003    0.00534
        755    17   -7.315872   -7.315307    0.000565 396.303    0.00003    0.00532
        756    16   -7.315872   -7.315355    0.000516 396.303    0.00003    0.00531
        757    16   -7.315872   -7.315404    0.000468 396.303    0.00003    0.00530
        758    16   -7.315871   -7.315452    0.000419 396.303    0.00003    0.00529
        759    17   -7.315871   -7.315502    0.000370 396.303    0.00003    0.00527
        760    16   -7.315871   -7.315552    0.000319 396.303    0.00003    0.00526
        761    16   -7.315871   -7.315603    0.000269 396.303    0.00003    0.00525
        762    18   -7.315871   -7.315654    0.000218 396.303    0.00003    0.00523
        763    16   -7.315871   -7.315704    0.000167 396.303    0.00003    0.00522
        764    16   -7.315871   -7.315753    0.000117 396.303    0.00003    0.00521
        765    18   -7.315871   -7.315801    0.000070 396.303    0.00003    0.00520
        766    16   -7.315871   -7.315845    0.000026 396.303    0.00003    0.00518
        767    16   -7.315870   -7.315885    0.000014 396.303    0.00003    0.00517
        768    18   -7.315870   -7.315920    0.000049 396.303    0.00003    0.00516
        769    16   -7.315870   -7.315949    0.000079 396.303    0.00003    0.00515
        770    16   -7.315870   -7.315972    0.000102 396.303    0.00003    0.00513
        771    17   -7.315869   -7.315988    0.000118 396.303    0.00003    0.00512
        772    16   -7.315869   -7.315997    0.000128 396.303    0.00003    0.00511
        773    17   -7.315869   -7.315999    0.000131 396.303    0.00003    0.00509
        774    17   -7.315869   -7.315995    0.000127 396.303    0.00002    0.00508
        775    16   -7.315868   -7.315985    0.000117 396.303    0.00002    0.00507
        776    18   -7.315868   -7.315970    0.000101 396.303    0.00002    0.00505
        777    17   -7.315868   -7.315949    0.000081 396.303    0.00002    0.00504
        778    18   -7.315868   -7.315925    0.000057 396.303    0.00002    0.00503
        779    18   -7.315868   -7.315898    0.000030 396.303    0.00002    0.00501
        780    18   -7.315867   -7.315868    0.000001 396.303    0.00002    0.00500
        781    18   -7.315867   -7.315837    0.000031 396.303    0.00002    0.00499
        782    17   -7.315867   -7.315804    0.000063 396.303    0.00002    0.00497
        783    16   -7.315867   -7.315770    0.000097 396.303    0.00002    0.00496
        784    18   -7.315867   -7.315736    0.000131 396.303    0.00002    0.00495
        785    16   -7.315867   -7.315702    0.000165 396.303    0.00002    0.00493
        786    18   -7.315867   -7.315667    0.000200 396.303    0.00002    0.00492
        787    16   -7.315867   -7.315632    0.000235 396.303    0.00002    0.00490
        788    17   -7.315867   -7.315596    0.000270 396.303    0.00002    0.00489
        789    16   -7.315867   -7.315560    0.000306 396.303    0.00002    0.00488
        790    17   -7.315866   -7.315523    0.000343 396.303    0.00002    0.00486
        791    18   -7.315866   -7.315486    0.000381 396.303    0.00002    0.00485
        792    17   -7.315866   -7.315447    0.000419 396.303    0.00002    0.00484
        793    16   -7.315866   -7.315408    0.000458 396.303    0.00002    0.00482
        794    17   -7.315866   -7.315369    0.000498 396.303    0.00002    0.00481
        795    16   -7.315866   -7.315329    0.000537 396.303    0.00002    0.00480
        796    17   -7.315866   -7.315288    0.000578 396.303    0.00002    0.00479
        797    16   -7.315866   -7.315249    0.000617 396.303    0.00002    0.00477
        798    16   -7.315866   -7.315210    0.000656 396.303    0.00002    0.00476
        799    18   -7.315866   -7.315172    0.000693 396.303    0.00002    0.00475
        800    16   -7.315866   -7.315137    0.000729 396.303    0.00002    0.00473
        801    17   -7.315866   -7.315103    0.000763 396.303    0.00002    0.00472
[...]
       1238    13   -7.315851   -7.315833    0.000019   1.859    0.00001    0.00000
       1239    13   -7.315852   -7.315833    0.000018   1.859    0.00001    0.00000
       1240    13   -7.315852   -7.315834    0.000018   1.859    0.00001    0.00000
       1241    13   -7.315852   -7.315835    0.000017   1.859    0.00001    0.00000
       1242    13   -7.315852   -7.315836    0.000016   1.859    0.00001    0.00000
       1243    13   -7.315853   -7.315837    0.000016   1.859    0.00001    0.00000
       1244    13   -7.315852   -7.315838    0.000015   1.859    0.00001    0.00000
       1245    13   -7.315852   -7.315839    0.000014   1.859    0.00001    0.00000
       1246    13   -7.315852   -7.315840    0.000013   1.859    0.00001    0.00000
       1247    13   -7.315852   -7.315841    0.000011   1.859    0.00001    0.00000
       1248    13   -7.315852   -7.315841    0.000010   1.859    0.00001    0.00000
       1249    13   -7.315851   -7.315842    0.000009   1.859    0.00001    0.00000
       1250    13   -7.315851   -7.315843    0.000008   1.859    0.00001    0.00000
       1251    13   -7.315851   -7.315843    0.000007   1.859    0.00001    0.00000
       1252    13   -7.315850   -7.315844    0.000007   1.859    0.00001    0.00000
       1253    13   -7.315850   -7.315844    0.000006   1.859    0.00001    0.00000
       1254    13   -7.315850   -7.315845    0.000005   1.859    0.00001    0.00000
       1255    13   -7.315850   -7.315845    0.000004   1.859    0.00001    0.00000
       1256    13   -7.315849   -7.315846    0.000004   1.859    0.00001    0.00000
       1257    13   -7.315849   -7.315846    0.000003   1.859    0.00001    0.00000
       1258    13   -7.315849   -7.315846    0.000003   1.859    0.00001    0.00000
       1259    13   -7.315848   -7.315846    0.000002   1.859    0.00001    0.00000
       1260    12   -7.315848   -7.315847    0.000002   1.859    0.00001    0.00000
       1261    12   -7.315848   -7.315847    0.000001   1.859    0.00001    0.00000
       1262    12   -7.315848   -7.315847    0.000001   1.859    0.00001    0.00000
       1263    11   -7.315847   -7.315847    0.000000   1.859    0.00001    0.00000
       1264    11   -7.315847   -7.315847    0.000000   1.859    0.00001    0.00000
       1265    12   -7.315847   -7.315847    0.000000   1.859    0.00001    0.00000
       1266    12   -7.315846   -7.315847    0.000000   1.859    0.00001    0.00000
       1267    12   -7.315846   -7.315846    0.000001   1.859    0.00001    0.00000
       1268    11   -7.315845   -7.315846    0.000001   1.859    0.00001    0.00000
       1269    11   -7.315845   -7.315846    0.000001   1.859    0.00001    0.00000
       1270    12   -7.315845   -7.315845    0.000001   1.859    0.00001    0.00000
       1271    12   -7.315844   -7.315845    0.000001   1.859    0.00001    0.00000
       1272    12   -7.315844   -7.315844    0.000000   1.859    0.00001    0.00000
       1273    12   -7.315844   -7.315844    0.000000   1.859    0.00001    0.00000
       1274    11   -7.315843   -7.315843    0.000000   1.859    0.00001    0.00000
       1275    12   -7.315843   -7.315842    0.000001   1.859    0.00001    0.00000
       1276    12   -7.315843   -7.315842    0.000001   1.859    0.00001    0.00000
       1277    12   -7.315843   -7.315841    0.000002   1.859    0.00001    0.00000
       1278    12   -7.315843   -7.315840    0.000003   1.859    0.00001    0.00000
       1279    13   -7.315843   -7.315839    0.000003   1.859    0.00001    0.00000
       1280    13   -7.315843   -7.315838    0.000004   1.859    0.00001    0.00000
       1281    12   -7.315843   -7.315838    0.000005   1.859    0.00001    0.00000
       1282    13   -7.315843   -7.315837    0.000006   1.859    0.00001    0.00000
       1283    13   -7.315843   -7.315836    0.000007   1.859    0.00001    0.00000
       1284    13   -7.315843   -7.315836    0.000008   1.859    0.00001    0.00000
       1285    13   -7.315843   -7.315835    0.000009   1.859    0.00001    0.00000
       1286    13   -7.315844   -7.315834    0.000009   1.859    0.00001    0.00000
       1287    12   -7.315844   -7.315834    0.000010   1.859    0.00001    0.00000
       1288    12   -7.315844   -7.315833    0.000011   1.859    0.00001    0.00000
       1289    12   -7.315844   -7.315833    0.000012   1.859    0.00001    0.00000
       1290    12   -7.315845   -7.315832    0.000012   1.859    0.00001    0.00000
       1291    12   -7.315845   -7.315832    0.000013   1.859    0.00001    0.00000
       1292    12   -7.315845   -7.315831    0.000014   1.859    0.00001    0.00000
       1293    12   -7.315845   -7.315831    0.000014   1.859    0.00001    0.00000
       1294    12   -7.315846   -7.315831    0.000015   1.859    0.00001    0.00000
       1295    12   -7.315846   -7.315830    0.000016   1.859    0.00001    0.00000
       1296    12   -7.315846   -7.315830    0.000016   1.859    0.00001    0.00000
       1297    11   -7.315847   -7.315830    0.000017   1.859    0.00001    0.00000
       1298    12   -7.315847   -7.315830    0.000017   1.859    0.00001    0.00000
       1299    12   -7.315847   -7.315830    0.000017   1.859    0.00001    0.00000
       1300    12   -7.315848   -7.315830    0.000018   1.859    0.00001    0.00000
       1301    12   -7.315848   -7.315830    0.000018   1.859    0.00001    0.00000
       1302    11   -7.315848   -7.315830    0.000018   1.859    0.00001    0.00000
       1303    13   -7.315849   -7.315830    0.000018   1.859    0.00001    0.00000
       1304    13   -7.315849   -7.315831    0.000018   1.859    0.00001    0.00000
       1305    13   -7.315849   -7.315831    0.000018   1.859    0.00001    0.00000
       1306    13   -7.315850   -7.315831    0.000018   1.859    0.00001    0.00000
       1307    13   -7.315850   -7.315832    0.000018   1.859    0.00001    0.00000
       1308    13   -7.315850   -7.315832    0.000018   1.859    0.00001    0.00000
       1309    13   -7.315851   -7.315833    0.000018   1.859    0.00001    0.00000
       1310    13   -7.315851   -7.315834    0.000017   1.859    0.00001    0.00000
       1311    13   -7.315851   -7.315834    0.000017   1.859    0.00001    0.00000
       1312    13   -7.315851   -7.315835    0.000016   1.859    0.00001    0.00000
       1313    13   -7.315851   -7.315836    0.000016   1.859    0.00001    0.00000
       1314    13   -7.315851   -7.315836    0.000015   1.859    0.00001    0.00000
       1315    13   -7.315851   -7.315837    0.000014   1.859    0.00001    0.00000
       1316    13   -7.315851   -7.315838    0.000014   1.859    0.00001    0.00000
       1317    13   -7.315851   -7.315838    0.000013   1.859    0.00001    0.00000
       1318    13   -7.315851   -7.315839    0.000012   1.859    0.00001    0.00000
       1319    13   -7.315851   -7.315840    0.000011   1.859    0.00001    0.00000
       1320    13   -7.315851   -7.315840    0.000011   1.859    0.00001    0.00000
       1321    13   -7.315851   -7.315841    0.000010   1.859    0.00001    0.00000
       1322    13   -7.315851   -7.315841    0.000009   1.859    0.00001    0.00000
       1323    13   -7.315850   -7.315842    0.000008   1.859    0.00001    0.00000
       1324    13   -7.315850   -7.315843    0.000008   1.859    0.00001    0.00000
       1325    13   -7.315850   -7.315843    0.000007   1.859    0.00001    0.00000
       1326    13   -7.315850   -7.315844    0.000006   1.859    0.00001    0.00000
       1327    13   -7.315850   -7.315844    0.000006   1.859    0.00001    0.00000
       1328    13   -7.315849   -7.315844    0.000005   1.859    0.00001    0.00000
       1329    13   -7.315849   -7.315845    0.000004   1.859    0.00001    0.00000
       1330    13   -7.315849   -7.315845    0.000004   1.859    0.00001    0.00000
       1331    13   -7.315849   -7.315845    0.000003   1.859    0.00001    0.00000
       1332    13   -7.315848   -7.315845    0.000003   1.859    0.00001    0.00000
       1333    13   -7.315848   -7.315845    0.000002   1.859    0.00001    0.00000
       1334    12   -7.315848   -7.315846    0.000002   1.859    0.00001    0.00000
       1335    13   -7.315847   -7.315846    0.000002   1.859    0.00001    0.00000
       1336    12   -7.315847   -7.315846    0.000001   1.859    0.00001    0.00000
       1337    12   -7.315847   -7.315845    0.000001   1.859    0.00001    0.00000
       1338    12   -7.315846   -7.315845    0.000001   1.859    0.00001    0.00000

      v2RDM iterations converged!

      v2RDM total spin [S(S+1)]:             0.499999
    * v2RDM total energy:             -7.315846225725


 # Natural Orbital Occupation Numbers (alpha) #
 Irrep: 1
      1:  0.9999994
      2:  0.9998383

 Irrep: 2

 Irrep: 3

 Irrep: 4

 Irrep: 5

 Irrep: 6
      1:  0.0000554

 Irrep: 7
      1:  0.0000549

 Irrep: 8
      1:  0.0000521


 # Natural Orbital Occupation Numbers (beta) #
 Irrep: 1
      1:  0.9998751
      2:  0.0000000

 Irrep: 2

 Irrep: 3

 Irrep: 4

 Irrep: 5

 Irrep: 6
      1:  0.0000416

 Irrep: 7
      1:  0.0000416

 Irrep: 8
      1:  0.0000417


  ==> Iteration count <==

      Microiterations:                   21334
      Macroiterations:                    1339
      Orbital optimization steps:            0

  ==> Wall time <==

      Microiterations:                    0.87 s
      Macroiterations:                    0.86 s
      Orbital optimization:               0.00 s
      Total:                              1.84 s


*** tstop() called on ed4 at Fri Apr  8 11:57:52 2016
Module time:
	user time   =       1.63 seconds =       0.03 minutes
	system time =       0.20 seconds =       0.00 minutes
	total time  =          1 seconds =       0.02 minutes
Total time:
	user time   =       1.73 seconds =       0.03 minutes
	system time =       0.22 seconds =       0.00 minutes
	total time  =          2 seconds =       0.03 minutes

*** tstart() called on ed4
*** at Fri Apr  8 11:57:52 2016


         ---------------------------------------------------------
                                   SCF
            by Justin Turney, Rob Parrish, and Andy Simmonett
                             ROHF Reference
                        1 Threads,    256 MiB Core
         ---------------------------------------------------------

  ==> Geometry <==

    Molecular point group: d2h
    Geometry (in Angstrom), charge = 0, multiplicity = 2:

       Center              X                  Y                   Z               Mass       
    ------------   -----------------  -----------------  -----------------  -----------------
          LI          0.000000000000     0.000000000000     0.000000000000     7.016004548000

  Running in d2h symmetry.

  Rotational constants: A = ************  B = ************  C = ************ [cm^-1]
  Rotational constants: A = ************  B = ************  C = ************ [MHz]
  Nuclear repulsion =    0.000000000000000

  Charge       = 0
  Multiplicity = 2
  Electrons    = 3
  Nalpha       = 2
  Nbeta        = 1

  ==> Algorithm <==

  SCF Algorithm Type is PK.
  DIIS enabled.
  MOM disabled.
  Fractional occupation disabled.
  Guess Type is SAD.
  Energy threshold   = 1.00e-08
  Density threshold  = 1.00e-10
  Integral threshold = 0.00e+00

  ==> Primary Basis <==

  Basis Set: STO-3G
    Number of shells: 3
    Number of basis function: 5
    Number of Cartesian functions: 5
    Spherical Harmonics?: true
    Max angular momentum: 1

  ==> Pre-Iterations <==

   -------------------------------------------------------
    Irrep   Nso     Nmo     Nalpha   Nbeta   Ndocc  Nsocc
   -------------------------------------------------------
     Ag         2       2       0       0       0       0
     B1g        0       0       0       0       0       0
     B2g        0       0       0       0       0       0
     B3g        0       0       0       0       0       0
     Au         0       0       0       0       0       0
     B1u        1       1       0       0       0       0
     B2u        1       1       0       0       0       0
     B3u        1       1       0       0       0       0
   -------------------------------------------------------
    Total       5       5       2       1       1       1
   -------------------------------------------------------

  ==> Integral Setup <==

	Batch   1 pq = [       0,       6] index = [             0,21]
  ==> DiskJK: Disk-Based J/K Matrices <==

    J tasked:                  Yes
    K tasked:                  Yes
    wK tasked:                  No
    Memory (MB):               183
    Schwarz Cutoff:          1E-12

  Minimum eigenvalue in the overlap matrix is 7.5886334882E-01.
  Using Symmetric Orthogonalization.
  SCF Guess: Superposition of Atomic Densities via on-the-fly atomic UHF.

  ==> Iterations <==

                        Total Energy        Delta E     RMS |[F,P]|

   @ROHF iter   0:    -8.07791328720376   -8.07791e+00   0.00000e+00 
   @ROHF iter   1:    -7.26622737522767    8.11686e-01   1.19319e-01 
   @ROHF iter   2:    -7.31504091762507   -4.88135e-02   1.19777e-02 DIIS
   @ROHF iter   3:    -7.31552594963906   -4.85032e-04   9.67515e-05 DIIS
   @ROHF iter   4:    -7.31552598128107   -3.16420e-08   6.64034e-08 DIIS
   @ROHF iter   5:    -7.31552598128109   -1.68754e-14   2.05873e-11 DIIS

  ==> Post-Iterations <==

    Orbital Energies (a.u.)
    -----------------------

    Doubly Occupied:                                                      

       1Ag    -2.353491  

    Singly Occupied:                                                      

       2Ag    -0.038960  

    Virtual:                                                              

       1B3u    0.160521     1B1u    0.160521     1B2u    0.160521  

    Final Occupation by Irrep:
             Ag   B1g   B2g   B3g    Au   B1u   B2u   B3u 
    DOCC [     1,    0,    0,    0,    0,    0,    0,    0 ]
    SOCC [     1,    0,    0,    0,    0,    0,    0,    0 ]

  Energy converged.

  @ROHF Final Energy:    -7.31552598128109

   => Energetics <=

    Nuclear Repulsion Energy =              0.0000000000000000
    One-Electron Energy =                  -9.7438984944084588
    Two-Electron Energy =                   2.4283725131273712
    DFT Exchange-Correlation Energy =       0.0000000000000000
    Empirical Dispersion Energy =           0.0000000000000000
    PCM Polarization Energy =               0.0000000000000000
    EFP Energy =                            0.0000000000000000
    Total Energy =                         -7.3155259812810876

    Alert: EFP and PCM quantities not currently incorporated into SCF psivars.

Properties will be evaluated at   0.000000,   0.000000,   0.000000 Bohr
  ==> Properties <==


Properties computed using the SCF density matrix

  Nuclear Dipole Moment: (a.u.)
     X:     0.0000      Y:     0.0000      Z:     0.0000

  Electronic Dipole Moment: (a.u.)
     X:     0.0000      Y:     0.0000      Z:     0.0000

  Dipole Moment: (a.u.)
     X:     0.0000      Y:     0.0000      Z:     0.0000     Total:     0.0000

  Dipole Moment: (Debye)
     X:     0.0000      Y:     0.0000      Z:     0.0000     Total:     0.0000


  Saving occupied orbitals to File 180.

*** tstop() called on ed4 at Fri Apr  8 11:57:53 2016
Module time:
	user time   =       0.09 seconds =       0.00 minutes
	system time =       0.03 seconds =       0.00 minutes
	total time  =          1 seconds =       0.02 minutes
Total time:
	user time   =       1.85 seconds =       0.03 minutes
	system time =       0.25 seconds =       0.00 minutes
	total time  =          3 seconds =       0.05 minutes

         ---------------------------------------------------------
                                 D E T C I  

                             C. David Sherrill
                             Matt L. Leininger
                               18 June 1999
         ---------------------------------------------------------

Warning: iopen=0,opentype!=closed. Making iopen=1

DETCI PARAMETERS: 
   EX LEVEL      =        3      H0 BLOCKSIZE =      400
   VAL EX LEVEL  =        0      H0 GUESS SIZE=      400
   H0COUPLINGSIZE=        0      H0 COUPLING  =       no
   MAXITER       =      500      NUM PRINT    =       20
   NUM ROOTS     =        1      ICORE        =        1
   PRINT         =        1      FCI          =      yes
   R CONV        = 1.00e-04      MIXED        =      yes
   E CONV        = 1.00e-06      MIXED4       =      yes
   OEI FILE      =       35      R4S          =       no
   REPL OTF      =       no
   TEI FILE      =       72      DIAG METHOD  =      SEM
   PRECONDITIONER= DAVIDSON      UPDATE       = DAVIDSON
   S             =   0.5000      Ms0          =       no
   MAX NUM VECS  =      501
   RESTART       =       no
   GUESS VECTOR  =  H0BLOCK      OPENTYPE     = HIGHSPIN
   REF SYM       =     auto
   COLLAPSE SIZE =        1      HD AVG       = EVANGELISTI
   LSE           =       no      LSE ITER     =        0
   HD OTF        =      yes      NO DFILE     =       no
   MPN           =       no      MPN SCHMIDT  =       no
   ZAPTN         =       no      MPN WIGNER   =       no
   PERT Z        =   1.0000      FOLLOW ROOT  =        0
   NUM THREADS   =        1
   VECS WRITE    =       no      NUM VECS WRITE =      0
   FILTER GUESS  =       no      SF RESTRICT  =       no
   OPDM          =       no      TRANS DENSITY=       no

   FILES         =  50 51 52 53

   EX ALLOW      =  1  1  1 
   STATE AVERAGE =  1(1.00) 

ORBITALS:
   NMO          =        5
   FROZEN CORE  =        0      RESTR CORE   =        0
   FROZEN VIRT  =        0      RESTR VIRT   =        0
   DROPPED CORE =        0      DROPPED VIRT =        0
   EXPLICIT CORE=        0      ORBS IN CI   =        5
   NUM ALP      =        2      NUM BET      =        1
   NUM ALP EXPL =        2      NUM BET EXPL =        1
   IOPEN        =      yes

   DOCC            =   1   0   0   0   0   0   0   0 
   SOCC            =   1   0   0   0   0   0   0   0 

   FROZEN DOCC     =   0   0   0   0   0   0   0   0 
   RESTRICTED DOCC =   0   0   0   0   0   0   0   0 
   ACTIVE          =   2   0   0   0   0   1   1   1 
   RESTRICTED UOCC =   0   0   0   0   0   0   0   0 
   FROZEN UOCC     =   0   0   0   0   0   0   0   0 
         ---------------------------------------------------------


   ==> Setting up CI strings <==

   There are 10 alpha and 5 beta strings
   The CI space requires 8 (8.00E+00) determinants and 4 blocks


   ==> Transforming CI integrals <==

	Presorting SO-basis two-electron integrals.
	Sorting File: SO Ints (nn|nn) nbuckets = 1
	Transforming the one-electron integrals and constructing Fock matrices
	Starting first half-transformation.
	Sorting half-transformed integrals.
	First half integral transformation complete.
	Starting second half-transformation.
	Two-electron integral transformation complete.

*** H0 Block Eigenvalue =  -7.31583655

Find the roots by the Simultaneous Expansion Method (Block Davidson Method)
Using 1 initial trial vectors
Iter  0  Root  1 =  -7.315836553   Delta_E -7.316E+00   Delta_C  3.607E-15  
Warning: Norm of correction (root 0) is < 1.0E-13
Iter  1  Root  1 =  -7.315836553   Delta_E  0.000E+00   Delta_C  3.031E-16 c

* ROOT 1 CI total energy =  -7.3158365528506


The 8 most important determinants

    1   -0.999937  (    0,    0)  1AgX  2AgA  
    2   -0.006132  (    8,    4)  1AgA  1B3uX  
    3   -0.006132  (    4,    2)  1AgA  1B1uX  
    4   -0.006132  (    6,    3)  1AgA  1B2uX  
    5   -0.001988  (    7,    3)  2AgA  1B2uX  
    6   -0.001988  (    5,    2)  2AgA  1B1uX  
    7   -0.001988  (    9,    4)  2AgA  1B3uX  
    8    0.000579  (    0,    1)  1AgA  2AgX  


		 "A good bug is a dead bug" 

			 - Starship Troopers

		 "I didn't write FORTRAN.  That's the problem."

			 - Edward Valeev

	v2RDM vs full CI..................................................PASSED

*** PSI4 exiting successfully. Buy a developer a beer!
