
    -----------------------------------------------------------------------
          Psi4: An Open-Source Ab Initio Electronic Structure Package
                               Psi4 undefined 

                         Git: Rev {fnocc_update} 3c7bbbd dirty


    R. M. Parrish, L. A. Burns, D. G. A. Smith, A. C. Simmonett,
    A. E. DePrince III, E. G. Hohenstein, U. Bozkaya, A. Yu. Sokolov,
    R. Di Remigio, R. M. Richard, J. F. Gonthier, A. M. James,
    H. R. McAlexander, A. Kumar, M. Saitow, X. Wang, B. P. Pritchard,
    P. Verma, H. F. Schaefer III, K. Patkowski, R. A. King, E. F. Valeev,
    F. A. Evangelista, J. M. Turney, T. D. Crawford, and C. D. Sherrill,
    J. Chem. Theory Comput. 13(7) pp 3185--3197 (2017).
    (doi: 10.1021/acs.jctc.7b00174)


                         Additional Contributions by
    P. Kraus, H. Kruse, M. H. Lechner, M. C. Schieber, R. A. Shaw,
    A. Alenaizan, R. Galvelis, Z. L. Glick, S. Lehtola, and J. P. Misiewicz

    -----------------------------------------------------------------------


    Psi4 started on: Tuesday, 28 January 2020 10:20PM

    Process ID: 69445
    Host:       Eugenes-MacBook-Air.local
    PSIDATADIR: /Users/deprince/edeprince3/psi4/fnocc_update/install/share/psi4
    Memory:     500.0 MiB
    Threads:    1
    
  ==> Input File <==

--------------------------------------------------------------------------
#! cc-pvdz N2 (6,6) active space Test DQG

# job description:
print('        H2 / cc-pVDZ / D(2,2), scf_type = DF, rHH = 1.0 A')

sys.path.insert(0, '../../..')
import v2rdm_casscf

molecule h2 {
0 1
h
h 1 r
symmetry c1
}

set {
  basis cc-pvdz #6-31g
  mcscf_type df
  scf_type df
  d_convergence      1e-10
  maxiter 500
  restricted_docc [  0 ]
  restricted_uocc [  8 ]
  active          [  2 ]
}
set v2rdm_casscf {
  positivity d
  r_convergence  1e-6
  e_convergence  1e-8
  maxiter 20000
}

activate(h2)

h2.r = 1.0

set df_ints_io save
en,wfn = energy('scf',return_wfn = True)

en1 = v2rdm_casscf.v2rdm_scf_solver(wfn)
en2 = energy('casscf')

compare_values(en1, en2, 6, "v2RDM-CASSCF total energy") # TEST

--------------------------------------------------------------------------
Molecule: geometry: Molecule is not complete, please use 'update_geometry'
                    once all variables are set.
Molecule: Setting geometry variable r to 1.000000

Scratch directory: /tmp/

*** tstart() called on Eugenes-MacBook-Air.local
*** at Tue Jan 28 22:20:22 2020

   => Loading Basis Set <=

    Name: CC-PVDZ
    Role: ORBITAL
    Keyword: BASIS
    atoms 1-2 entry H          line    22 file /Users/deprince/edeprince3/psi4/fnocc_update/install/share/psi4/basis/cc-pvdz.gbs 


         ---------------------------------------------------------
                                   SCF
               by Justin Turney, Rob Parrish, Andy Simmonett
                          and Daniel G. A. Smith
                              RHF Reference
                        1 Threads,    500 MiB Core
         ---------------------------------------------------------

  ==> Geometry <==

    Molecular point group: c1
    Full point group: D_inf_h

    Geometry (in Angstrom), charge = 0, multiplicity = 1:

       Center              X                  Y                   Z               Mass       
    ------------   -----------------  -----------------  -----------------  -----------------
         H            0.000000000000     0.000000000000    -0.500000000000     1.007825032230
         H            0.000000000000     0.000000000000     0.500000000000     1.007825032230

  Running in c1 symmetry.

  Rotational constants: A = ************  B =     33.45348  C =     33.45348 [cm^-1]
  Rotational constants: A = ************  B = 1002910.21295  C = 1002910.21295 [MHz]
  Nuclear repulsion =    0.529177210670000

  Charge       = 0
  Multiplicity = 1
  Electrons    = 2
  Nalpha       = 1
  Nbeta        = 1

  ==> Algorithm <==

  SCF Algorithm Type is DF.
  DIIS enabled.
  MOM disabled.
  Fractional occupation disabled.
  Guess Type is SAD.
  Energy threshold   = 1.00e-06
  Density threshold  = 1.00e-10
  Integral threshold = 0.00e+00

  ==> Primary Basis <==

  Basis Set: CC-PVDZ
    Blend: CC-PVDZ
    Number of shells: 6
    Number of basis function: 10
    Number of Cartesian functions: 10
    Spherical Harmonics?: true
    Max angular momentum: 1

   => Loading Basis Set <=

    Name: (CC-PVDZ AUX)
    Role: JKFIT
    Keyword: DF_BASIS_SCF
    atoms 1-2 entry H          line    51 file /Users/deprince/edeprince3/psi4/fnocc_update/install/share/psi4/basis/cc-pvdz-jkfit.gbs 

  ==> Pre-Iterations <==

   -------------------------------------------------------
    Irrep   Nso     Nmo     Nalpha   Nbeta   Ndocc  Nsocc
   -------------------------------------------------------
     A         10      10       0       0       0       0
   -------------------------------------------------------
    Total      10      10       1       1       1       0
   -------------------------------------------------------

  ==> Integral Setup <==

  ==> DiskDFJK: Density-Fitted J/K Matrices <==

    J tasked:                  Yes
    K tasked:                  Yes
    wK tasked:                  No
    OpenMP threads:              1
    Integrals threads:           1
    Memory [MiB]:              375
    Algorithm:                Core
    Integral Cache:           SAVE
    Schwarz Cutoff:          1E-12
    Fitting Condition:       1E-10

   => Auxiliary Basis Set <=

  Basis Set: (CC-PVDZ AUX)
    Blend: CC-PVDZ-JKFIT
    Number of shells: 18
    Number of basis function: 46
    Number of Cartesian functions: 50
    Spherical Harmonics?: true
    Max angular momentum: 2

  Minimum eigenvalue in the overlap matrix is 1.1235676082E-01.
    Using symmetric orthogonalization.
  SCF Guess: Superposition of Atomic Densities via on-the-fly atomic UHF.

  ==> Iterations <==

                           Total Energy        Delta E     RMS |[F,P]|

   @DF-RHF iter SAD:    -0.83821039461596   -8.38210e-01   0.00000e+00 
   @DF-RHF iter   1:    -1.09846695277034   -2.60257e-01   3.87256e-03 DIIS
   @DF-RHF iter   2:    -1.10010273094308   -1.63578e-03   6.74403e-04 DIIS
   @DF-RHF iter   3:    -1.10015467305940   -5.19421e-05   2.78811e-05 DIIS
   @DF-RHF iter   4:    -1.10015472080089   -4.77415e-08   3.01245e-07 DIIS
   @DF-RHF iter   5:    -1.10015472081126   -1.03626e-11   1.90427e-10 DIIS
   @DF-RHF iter   6:    -1.10015472081126   -6.66134e-16   1.96774e-13 DIIS
  Energy and wave function converged.


  ==> Post-Iterations <==

    Orbital Energies [Eh]
    ---------------------

    Doubly Occupied:                                                      

       1A     -0.525045  

    Virtual:                                                              

       2A      0.143595     3A      0.539600     4A      0.794809  
       5A      1.287243     6A      1.287243     7A      1.679173  
       8A      1.871599     9A      1.871599    10A      2.735467  

    Final Occupation by Irrep:
              A 
    DOCC [     1 ]

  @DF-RHF Final Energy:    -1.10015472081126

   => Energetics <=

    Nuclear Repulsion Energy =              0.5291772106700000
    One-Electron Energy =                  -2.2085747085264429
    Two-Electron Energy =                   0.5792427770451862
    Total Energy =                         -1.1001547208112568

Computation Completed


Properties will be evaluated at   0.000000,   0.000000,   0.000000 [a0]

Properties computed using the SCF density matrix

  Nuclear Dipole Moment: [e a0]
     X:     0.0000      Y:     0.0000      Z:     0.0000

  Electronic Dipole Moment: [e a0]
     X:    -0.0000      Y:     0.0000      Z:     0.0000

  Dipole Moment: [e a0]
     X:    -0.0000      Y:     0.0000      Z:     0.0000     Total:     0.0000

  Dipole Moment: [D]
     X:    -0.0000      Y:     0.0000      Z:     0.0000     Total:     0.0000


*** tstop() called on Eugenes-MacBook-Air.local at Tue Jan 28 22:20:22 2020
Module time:
	user time   =       0.29 seconds =       0.00 minutes
	system time =       0.01 seconds =       0.00 minutes
	total time  =          0 seconds =       0.00 minutes
Total time:
	user time   =       0.29 seconds =       0.00 minutes
	system time =       0.01 seconds =       0.00 minutes
	total time  =          0 seconds =       0.00 minutes

         ---------------------------------------------------------
                Multi-Configurational Self-Consistent Field
                            (a 'D E T C I' module)

                 Daniel G. A. Smith, C. David Sherrill, and
                              Matt L. Leininger
         ---------------------------------------------------------


   ==> Parameters <==

    EX LEVEL       =        2      H0 BLOCKSIZE  =     1000
    VAL EX LEVEL   =        0      H0 GUESS SIZE =     1000
    H0COUPLINGSIZE =        0      H0 COUPLING   =       NO
    MAXITER        =       12      NUM PRINT     =       20
    NUM ROOTS      =        1      ICORE         =        1
    PRINT LVL      =        1      FCI           =      YES
    R CONV         = 1.00e-07      MIXED         =      YES
    E CONV         = 1.00e-08      MIXED4        =      YES
    R4S            =       NO      REPL OTF      =       NO
    DIAG METHOD    =      SEM      FOLLOW ROOT   =        0
    PRECONDITIONER = DAVIDSON      UPDATE        = DAVIDSON
    S              =   0.0000      Ms0           =      YES
    GUESS VECTOR   =  H0BLOCK      OPENTYPE      =     NONE
    COLLAPSE SIZE  =        1      HD AVG        = EVANGELISTI
    MAX NUM VECS   =       13      REF SYM       =     AUTO
    IOPEN        =       NO

    EX ALLOW       =  1  1 
    STATE AVERAGE  =  0(1.00) 

   ==> CI Orbital and Space information <==

   ------------------------------------
               Space    Total     A
   ------------------------------------
                 Nso       10    10
                 Nmo       10    10
               Ndocc        1     1
               Nsocc        0     0
   ------------------------------------
               MCSCF Spaces
   ------------------------------------
         Frozen DOCC        0     0
     Restricted DOCC        0     0
              Active        2     2
     Restricted UOCC        8     8
         Frozen UOCC        0     0
   ------------------------------------

   ==> Setting up CI strings <==

    There are 2 alpha and 2 beta strings
    The CI space requires 4 (4.00E+00) determinants and 1 blocks

   ==> Setting up DF-MCSCF integrals <==

  ==> DiskDFJK: Density-Fitted J/K Matrices <==

    J tasked:                  Yes
    K tasked:                  Yes
    wK tasked:                  No
    OpenMP threads:              1
    Integrals threads:           1
    Memory [MiB]:              400
    Algorithm:                Core
    Integral Cache:           SAVE
    Schwarz Cutoff:          1E-12
    Fitting Condition:       1E-10

   => Auxiliary Basis Set <=

  Basis Set: (CC-PVDZ AUX)
    Blend: CC-PVDZ-JKFIT
    Number of shells: 18
    Number of basis function: 46
    Number of Cartesian functions: 50
    Spherical Harmonics?: true
    Max angular momentum: 2

  DFHelper Memory: AOs need 0.000 GiB; user supplied 0.391 GiB. Using in-core AOs.


   ==> Starting DF-MCSCF iterations <==

           Iter         Total Energy       Delta E   Orb RMS    CI RMS  NCI NORB

    <<< WARNING!! >>>

    The ACTIVE array takes precedence over the RESTRICTED_UOCC array.
    Check below whether your active space was correctly specified.



        ****************************************************
        *                                                  *
        *    v2RDM-CASSCF                                  *
        *                                                  *
        *    A variational 2-RDM-driven approach to the    *
        *    active space self-consistent field method     *
        *                                                  *
        ****************************************************


        The following papers should be cited when using v2RDM-CASSCF:

        J. Fosso-Tande, D. R. Nascimento, and A. E. DePrince III,
        Mol. Phys. 114, 423-430 (2015).

            URL: http://dx.doi.org/10.1080/00268976.2015.1078008

        J. Fosso-Tande, T.-S. Nguyen, G. Gidofalvi, and
        A. E. DePrince III, J. Chem. Theory Comput. accepted (2016).

            URL: http://dx.doi.org/10.1021/acs.jctc.6b00190



  ==> Convergence parameters <==

        r_convergence:                      1.000e-06
        e_convergence:                      1.000e-08
        cg_convergence:                     1.000e-09
        maxiter:                                20000
        cg_maxiter:                             10000

  ==> Active space details <==

        Number of frozen core orbitals:             0
        Number of restricted occupied orbitals:     0
        Number of active occupied orbitals:         1
        Number of active virtual orbitals:          1
        Number of restricted virtual orbitals:      8
        Number of frozen virtual orbitals:          0

        Irrep:              A 
 
        frozen_docc     [   0 ]
        restricted_docc [   0 ]
        active          [   2 ]
        restricted_uocc [   8 ]
        frozen_uocc     [   0 ]

  ==> Orbital optimization parameters <==

        1-step algorithm:                    true
        g_convergence:                  1.000e-06
        e_convergence:                  1.000e-08
        maximum iterations:                    20
        frequency:                            500
        active-active rotations:            false
        exact diagonal Hessian:             false
        number of DIIS vectors:                 0
        print iteration info:               false

  ==> Memory requirements <==

        D2:                          0.00 mb

        Total number of variables:             50
        Total number of constraints:           51
        Total memory requirements:        0.02 mb

    ==> Transform three-electron integrals <==


        Time for integral transformation:     0.01 s

    Molecular point group: c1
    Full point group: D_inf_h

    Geometry (in Angstrom), charge = 0, multiplicity = 1:

       Center              X                  Y                   Z               Mass       
    ------------   -----------------  -----------------  -----------------  -----------------
         H            0.000000000000     0.000000000000    -0.500000000000     1.007825032230
         H            0.000000000000     0.000000000000     0.500000000000     1.007825032230

  -AO BASIS SET INFORMATION:
    Name                   = CC-PVDZ
    Blend                  = CC-PVDZ
    Total number of shells = 6
    Number of primitives   = 10
    Number of AO           = 10
    Number of SO           = 10
    Maximum AM             = 1
    Spherical Harmonics    = TRUE

  -Contraction Scheme:
    Atom   Type   All Primitives // Shells:
   ------ ------ --------------------------
       1     H     4s 1p // 2s 1p 
       2     H     4s 1p // 2s 1p 

  ==> AO Basis Functions <==

    [ CC-PVDZ ]
    spherical
    ****
    H   1
    S   3 1.00
                        13.01000000           0.01968500
                         1.96200000           0.13797700
                         0.44460000           0.47814800
    S   1 1.00
                         0.12200000           1.00000000
    P   1 1.00
                         0.72700000           1.00000000
    ****
    H   2
    S   3 1.00
                        13.01000000           0.01968500
                         1.96200000           0.13797700
                         0.44460000           0.47814800
    S   1 1.00
                         0.12200000           1.00000000
    P   1 1.00
                         0.72700000           1.00000000
    ****


    reference energy:          -1.100154720811
    frozen core energy:         0.000000000000
    initial 2-RDM energy:       0.748605124322

      oiter iiter        E(p)        E(d)      E gap)      mu     eps(p)     eps(d)
          0    15   -1.437070   14.373626 1.581070e+01   1.000 1.00815e+01 1.36954e+01
          1    12   -0.368556   -9.639970 9.271414e+00   1.000 1.77675e+00 5.93975e+00
          2    12   -0.773977   -3.628155 2.854178e+00   1.000 7.02288e-01 1.68284e+00
          3    10   -1.028319   -1.655823 6.275044e-01   1.000 1.11171e+00 7.14384e-01
          4    10   -1.027959   -0.482748 5.452111e-01   1.000 8.61574e-01 4.88760e-01
          5    11   -0.967469   -0.245712 7.217566e-01   1.000 2.74727e-01 5.78999e-01
          6    11   -0.976645   -0.617688 3.589565e-01   1.000 2.55666e-02 2.68589e-01
          7    11   -1.013087   -0.723590 2.894976e-01   1.000 1.16082e-01 2.15283e-01
          8     9   -1.049152   -0.814354 2.347983e-01   1.000 1.41566e-01 1.87068e-01
          9     8   -1.082665   -0.887643 1.950220e-01   1.000 1.18239e-01 1.76706e-01
         10     8   -1.098089   -0.927198 1.708908e-01   1.000 1.23158e-01 1.41309e-01
         11     9   -1.108894   -0.985921 1.229733e-01   1.000 1.39529e-01 1.03851e-01
         12     9   -1.138431   -1.055084 8.334634e-02   1.000 1.18168e-01 7.91343e-02
         13     8   -1.131913   -1.159241 2.732857e-02   1.000 8.43100e-02 6.76738e-02
         14     8   -1.114700   -1.191528 7.682755e-02   1.000 5.17017e-02 6.07453e-02
         15     8   -1.101221   -1.169659 6.843849e-02   1.000 3.77430e-02 4.64902e-02
         16     8   -1.096560   -1.129189 3.262835e-02   1.000 3.41632e-02 3.16443e-02
         17     8   -1.109615   -1.097620 1.199509e-02   1.000 9.13821e-03 2.97351e-02
         18     7   -1.108200   -1.120879 1.267978e-02   1.000 2.14087e-03 1.86769e-02
         19    10   -1.107313   -1.120822 1.350909e-02   1.000 4.70263e-03 1.43010e-02
         20     9   -1.106634   -1.116156 9.522714e-03   1.000 8.25404e-03 1.08307e-02
         21     9   -1.106328   -1.110870 4.542011e-03   1.000 9.65176e-03 8.31416e-03
         22     9   -1.106408   -1.106005 4.035184e-04   1.000 9.14552e-03 7.08883e-03
         23     8   -1.106806   -1.102203 4.603409e-03   1.000 7.20232e-03 6.92707e-03
         24     8   -1.107362   -1.099930 7.432633e-03   1.000 4.38385e-03 7.06026e-03
         25     7   -1.107962   -1.099256 8.706836e-03   1.000 1.34647e-03 6.91031e-03
         26     9   -1.108567   -1.100040 8.526661e-03   1.000 1.61375e-03 6.30866e-03
         27     9   -1.109008   -1.101949 7.059274e-03   1.000 3.72329e-03 5.35838e-03
         28     9   -1.109273   -1.104504 4.769306e-03   1.000 4.96119e-03 4.32977e-03
         29     8   -1.109337   -1.107216 2.120725e-03   1.000 5.26043e-03 3.56556e-03
         30     8   -1.109242   -1.109623 3.809435e-04   1.000 4.71554e-03 3.28744e-03
         31     8   -1.109023   -1.111431 2.408672e-03   1.000 3.54976e-03 3.35384e-03
         32     8   -1.108735   -1.112457 3.722223e-03   1.000 2.04553e-03 3.43354e-03
         33     6   -1.108447   -1.112679 4.232195e-03   1.000 5.19571e-04 3.32206e-03
         34     9   -1.108156   -1.112195 4.039939e-03   1.000 9.31425e-04 2.98350e-03
         35     9   -1.107957   -1.111198 3.241679e-03   1.000 1.91813e-03 2.49334e-03
         36     9   -1.107848   -1.109924 2.075961e-03   1.000 2.45526e-03 1.99754e-03
         37     8   -1.107839   -1.108613 7.742388e-04   1.000 2.53004e-03 1.66710e-03
         38     9   -1.107898   -1.107489 4.093317e-04   1.000 2.19995e-03 1.58418e-03
         39     8   -1.108023   -1.106668 1.354845e-03   1.000 1.59088e-03 1.64091e-03
         40     8   -1.108172   -1.106251 1.920928e-03   1.000 8.40353e-04 1.67371e-03
         41     6   -1.108321   -1.106219 2.102544e-03   1.000 1.48948e-04 1.59995e-03
         42    11   -1.108455   -1.106522 1.933712e-03   1.000 5.84567e-04 1.41554e-03
         43     9   -1.108548   -1.107053 1.495609e-03   1.000 1.02640e-03 1.16706e-03
         44     8   -1.108591   -1.107699 8.926956e-04   1.000 1.24360e-03 9.31896e-04
         45     8   -1.108592   -1.108333 2.583494e-04   1.000 1.23465e-03 7.92926e-04
         46     8   -1.108554   -1.108866 3.115101e-04   1.000 1.03845e-03 7.73945e-04
         47     8   -1.108492   -1.109231 7.384664e-04   1.000 7.16308e-04 8.06990e-04
         48     8   -1.108419   -1.109400 9.810871e-04   1.000 3.39848e-04 8.15829e-04
         49     6   -1.108344   -1.109380 1.035421e-03   1.000 6.37291e-05 7.68530e-04
         50    11   -1.108285   -1.109205 9.203756e-04   1.000 3.36908e-04 6.69187e-04
         51     9   -1.108244   -1.108928 6.834149e-04   1.000 5.34736e-04 5.44547e-04
         52     8   -1.108228   -1.108606 3.779154e-04   1.000 6.19629e-04 4.34976e-04
         53     9   -1.108231   -1.108301 7.034858e-05   1.000 5.94721e-04 3.79341e-04
         54     9   -1.108253   -1.108052 2.008566e-04   1.000 4.83338e-04 3.79707e-04
         55     8   -1.108286   -1.107890 3.963418e-04   1.000 3.17095e-04 3.97021e-04
         56     8   -1.108323   -1.107827 4.959491e-04   1.000 1.31169e-04 3.97045e-04
         57     7   -1.108360   -1.107854 5.064591e-04   1.000 5.72256e-05 3.68354e-04
         58    10   -1.108387   -1.107953 4.345361e-04   1.000 1.90617e-04 3.15601e-04
         59     9   -1.108405   -1.108096 3.091206e-04   1.000 2.76971e-04 2.53719e-04
         60     8   -1.108411   -1.108256 1.553918e-04   1.000 3.07515e-04 2.03536e-04
         61     8   -1.108407   -1.108402 4.795312e-06   1.000 2.85809e-04 1.82505e-04
         62     8   -1.108395   -1.108517 1.218958e-04   1.000 2.23961e-04 1.86590e-04
         63     8   -1.108379   -1.108587 2.086269e-04   1.000 1.38223e-04 1.94876e-04
         64     7   -1.108361   -1.108609 2.480732e-04   1.000 4.65950e-05 1.92472e-04
         65     9   -1.108343   -1.108588 2.451172e-04   1.000 4.12991e-05 1.75760e-04
         66     9   -1.108330   -1.108534 2.037407e-04   1.000 1.04235e-04 1.48200e-04
         67     9   -1.108323   -1.108461 1.379466e-04   1.000 1.41588e-04 1.17948e-04
         68     8   -1.108321   -1.108382 6.130614e-05   1.000 1.51327e-04 9.56017e-05
         69     9   -1.108323   -1.108313 1.079069e-05   1.000 1.36053e-04 8.84747e-05
         70     8   -1.108330   -1.108260 7.056188e-05   1.000 1.02708e-04 9.20256e-05
         71     8   -1.108339   -1.108230 1.087490e-04   1.000 5.92029e-05 9.56600e-05
         72     6   -1.108347   -1.108223 1.237813e-04   1.000 1.50692e-05 9.32226e-05
         73     9   -1.108356   -1.108238 1.181645e-04   1.000 2.75718e-05 8.37247e-05
         74     9   -1.108362   -1.108267 9.487453e-05   1.000 5.62746e-05 6.94672e-05
         75     8   -1.108365   -1.108304 6.054999e-05   1.000 7.19892e-05 5.48323e-05
         76     8   -1.108365   -1.108342 2.292199e-05   1.000 7.40933e-05 4.51197e-05
         77     9   -1.108364   -1.108375 1.175478e-05   1.000 6.44437e-05 4.30998e-05
         78     8   -1.108360   -1.108399 3.943938e-05   1.000 4.66372e-05 4.53726e-05
         79     8   -1.108356   -1.108412 5.603102e-05   1.000 2.46569e-05 4.68118e-05
         80     6   -1.108351   -1.108413 6.135552e-05   1.000 3.85314e-06 4.49444e-05
         81    11   -1.108348   -1.108404 5.649953e-05   1.000 1.67782e-05 3.96837e-05
         82     9   -1.108345   -1.108389 4.373218e-05   1.000 2.97964e-05 3.24200e-05
         83     8   -1.108344   -1.108370 2.616499e-05   1.000 3.62138e-05 2.54722e-05
         84     8   -1.108344   -1.108351 7.648575e-06   1.000 3.60098e-05 2.14368e-05
         85     9   -1.108345   -1.108336 8.876401e-06   1.000 3.02945e-05 2.11389e-05
         86     8   -1.108346   -1.108325 2.155434e-05   1.000 2.09483e-05 2.24120e-05
         87     8   -1.108349   -1.108320 2.862056e-05   1.000 9.98152e-06 2.28877e-05
         88     6   -1.108351   -1.108321 3.025421e-05   1.000 1.92746e-06 2.16279e-05
         89    11   -1.108353   -1.108326 2.690879e-05   1.000 9.82178e-06 1.87684e-05
         90     9   -1.108354   -1.108334 2.001009e-05   1.000 1.56034e-05 1.51057e-05
         91     8   -1.108354   -1.108343 1.109012e-05   1.000 1.80927e-05 1.18552e-05
         92     8   -1.108354   -1.108352 2.033460e-06   1.000 1.73929e-05 1.02515e-05
         93     8   -1.108354   -1.108359 5.849536e-06   1.000 1.41458e-05 1.03955e-05
         94     8   -1.108353   -1.108364 1.151683e-05   1.000 9.27532e-06 1.10446e-05
         95     7   -1.108352   -1.108366 1.440688e-05   1.000 3.82249e-06 1.11405e-05
         96     6   -1.108350   -1.108365 1.476052e-05   1.000 1.55691e-06 1.03546e-05
         97     9   -1.108350   -1.108362 1.270123e-05   1.000 5.51212e-06 8.83141e-06
         98     9   -1.108349   -1.108358 9.032968e-06   1.000 8.05733e-06 7.01300e-06
         99     8   -1.108349   -1.108353 4.555802e-06   1.000 8.96337e-06 5.53020e-06
        100     9   -1.108349   -1.108349 1.951289e-07   1.000 8.33331e-06 4.94383e-06
        101     9   -1.108349   -1.108346 3.527987e-06   1.000 6.53822e-06 5.13634e-06
        102     8   -1.108350   -1.108344 6.091974e-06   1.000 4.04931e-06 5.44430e-06
        103     7   -1.108350   -1.108343 7.242141e-06   1.000 1.38203e-06 5.41668e-06
        104     9   -1.108351   -1.108344 7.163883e-06   1.000 1.20236e-06 4.94929e-06
        105     9   -1.108351   -1.108345 5.960009e-06   1.000 3.03634e-06 4.14752e-06
        106     9   -1.108352   -1.108347 4.041368e-06   1.000 4.12926e-06 3.25358e-06
        107     8   -1.108352   -1.108350 1.804905e-06   1.000 4.41663e-06 2.59103e-06
        108     9   -1.108351   -1.108352 3.008999e-07   1.000 3.97373e-06 2.39957e-06
        109     8   -1.108351   -1.108353 2.049301e-06   1.000 3.00165e-06 2.53928e-06
        110     8   -1.108351   -1.108354 3.167478e-06   1.000 1.73041e-06 2.67558e-06
        111     6   -1.108351   -1.108354 3.606545e-06   1.000 4.27049e-07 2.62242e-06
        112     9   -1.108351   -1.108354 3.447137e-06   1.000 7.89165e-07 2.35378e-06
        113     9   -1.108350   -1.108353 2.770155e-06   1.000 1.63422e-06 1.93835e-06
        114     8   -1.108350   -1.108352 1.770564e-06   1.000 2.09675e-06 1.50626e-06
        115     8   -1.108350   -1.108351 6.733359e-07   1.000 2.16104e-06 1.22094e-06
        116     9   -1.108350   -1.108350 3.392737e-07   1.000 1.88165e-06 1.17435e-06
        117     8   -1.108350   -1.108349 1.147777e-06   1.000 1.36382e-06 1.25882e-06
        118     8   -1.108351   -1.108349 1.634300e-06   1.000 7.23733e-07 1.31424e-06
        119     6   -1.108351   -1.108349 1.791553e-06   1.000 1.19473e-07 1.26743e-06
        120    11   -1.108351   -1.108349 1.651023e-06   1.000 4.87947e-07 1.11691e-06
        121     9   -1.108351   -1.108350 1.279788e-06   1.000 8.68005e-07 9.04028e-07
        122     8   -1.108351   -1.108350 7.672948e-07   1.000 1.05600e-06 6.97828e-07
        123     8   -1.108351   -1.108351 2.267857e-07   1.000 1.05083e-06 5.79324e-07
        124     9   -1.108351   -1.108351 2.558083e-07   1.000 8.84694e-07 5.77282e-07
        125     8   -1.108351   -1.108351 6.267370e-07   1.000 6.12104e-07 6.22964e-07
        126     8   -1.108351   -1.108352 8.337550e-07   1.000 2.91314e-07 6.42879e-07
        127     5   -1.108351   -1.108352 8.814867e-07   1.000 4.71784e-08 6.09250e-07
        128     9   -1.108351   -1.108351 7.851466e-07   1.000 2.83622e-07 5.27075e-07
        129     9   -1.108351   -1.108351 5.839889e-07   1.000 4.53608e-07 4.19668e-07
        130     8   -1.108351   -1.108351 3.244727e-07   1.000 5.27066e-07 3.23444e-07
        131     9   -1.108351   -1.108351 6.249759e-08   1.000 5.06811e-07 2.77354e-07
        132     9   -1.108351   -1.108350 1.688754e-07   1.000 4.12644e-07 2.85544e-07
        133     8   -1.108351   -1.108350 3.361397e-07   1.000 2.71386e-07 3.08485e-07
        134     8   -1.108351   -1.108350 4.218919e-07   1.000 1.12687e-07 3.13944e-07
        135     7   -1.108351   -1.108350 4.314680e-07   1.000 4.56241e-08 2.92358e-07
        136     9   -1.108351   -1.108350 3.713048e-07   1.000 1.60551e-07 2.48192e-07
        137     9   -1.108351   -1.108350 2.643936e-07   1.000 2.34929e-07 1.94544e-07
        138     8   -1.108351   -1.108351 1.337910e-07   1.000 2.61536e-07 1.50429e-07
        139     9   -1.108351   -1.108351 6.441219e-09   1.000 2.43304e-07 1.33842e-07

      v2RDM iterations converged!

    Molecular point group: c1
    Full point group: D_inf_h

    Geometry (in Angstrom), charge = 0, multiplicity = 1:

       Center              X                  Y                   Z               Mass       
    ------------   -----------------  -----------------  -----------------  -----------------
         H            0.000000000000     0.000000000000    -0.500000000000     1.007825032230
         H            0.000000000000     0.000000000000     0.500000000000     1.007825032230

  -AO BASIS SET INFORMATION:
    Name                   = CC-PVDZ
    Blend                  = CC-PVDZ
    Total number of shells = 6
    Number of primitives   = 10
    Number of AO           = 10
    Number of SO           = 10
    Maximum AM             = 1
    Spherical Harmonics    = TRUE

  -Contraction Scheme:
    Atom   Type   All Primitives // Shells:
   ------ ------ --------------------------
       1     H     4s 1p // 2s 1p 
       2     H     4s 1p // 2s 1p 

  ==> AO Basis Functions <==

    [ CC-PVDZ ]
    spherical
    ****
    H   1
    S   3 1.00
                        13.01000000           0.01968500
                         1.96200000           0.13797700
                         0.44460000           0.47814800
    S   1 1.00
                         0.12200000           1.00000000
    P   1 1.00
                         0.72700000           1.00000000
    ****
    H   2
    S   3 1.00
                        13.01000000           0.01968500
                         1.96200000           0.13797700
                         0.44460000           0.47814800
    S   1 1.00
                         0.12200000           1.00000000
    P   1 1.00
                         0.72700000           1.00000000
    ****

      na:                                    1.000000
      nb:                                    1.000000
      v2RDM total spin [S(S+1)]:            -0.000000

      Nuclear Repulsion Energy:                0.529177210670
      Two-Electron Energy:                     0.560811925612
      Kinetic Energy:                          0.908459553239
      Electron-Nuclear Potential Energy:      -3.106799435703

    * v2RDM total energy:                     -1.108350746181


 # Natural Orbital Occupation Numbers (alpha) #
 Irrep: 1
      1:  0.9903343
      2:  0.0096657
      3:  0.0000000
      4:  0.0000000
      5:  0.0000000
      6:  0.0000000
      7:  0.0000000
      8:  0.0000000
      9:  0.0000000
     10:  0.0000000


 # Natural Orbital Occupation Numbers (beta) #
 Irrep: 1
      1:  0.9903343
      2:  0.0096657
      3:  0.0000000
      4:  0.0000000
      5:  0.0000000
      6:  0.0000000
      7:  0.0000000
      8:  0.0000000
      9:  0.0000000
     10:  0.0000000


  ==> Iteration count <==

      Microiterations:                    1187
      Macroiterations:                     140
      Orbital optimization steps:            0

  ==> Wall time <==

      Microiterations:                    0.01 s
      Macroiterations:                    0.01 s
      Orbital optimization:               0.00 s
      Total:                              0.02 s

  ## C ACTIVE (Symmetry 0) ##
  Irrep: 1 Size: 10 x 2

                 1                   2

    1     0.37507201316396     0.20185946090183
    2     0.23022838234554     1.36178519066365
    3     0.02114727490528    -0.00069873066778
    4     0.00000000000000     0.00000000000000
    5    -0.00000000000000    -0.00000000000000
    6     0.37507201316396    -0.20185946090184
    7     0.23022838234554    -1.36178519066364
    8    -0.02114727490528    -0.00069873066778
    9     0.00000000000000     0.00000000000000
   10    -0.00000000000000     0.00000000000000



  ## C ACTIVE (Symmetry 0) ##
  Irrep: 1 Size: 10 x 2

                 1                   2

    1     0.37507201316396     0.20185946090183
    2     0.23022838234554     1.36178519066365
    3     0.02114727490528    -0.00069873066778
    4     0.00000000000000     0.00000000000000
    5    -0.00000000000000    -0.00000000000000
    6     0.37507201316396    -0.20185946090184
    7     0.23022838234554    -1.36178519066364
    8    -0.02114727490528    -0.00069873066778
    9     0.00000000000000     0.00000000000000
   10    -0.00000000000000     0.00000000000000



   @DF-MCSCF  1:     -1.108350746181   -8.1960e-03  9.72e-03  0.00e+00    0    1  Initial CI

    <<< WARNING!! >>>

    The ACTIVE array takes precedence over the RESTRICTED_UOCC array.
    Check below whether your active space was correctly specified.



        ****************************************************
        *                                                  *
        *    v2RDM-CASSCF                                  *
        *                                                  *
        *    A variational 2-RDM-driven approach to the    *
        *    active space self-consistent field method     *
        *                                                  *
        ****************************************************


        The following papers should be cited when using v2RDM-CASSCF:

        J. Fosso-Tande, D. R. Nascimento, and A. E. DePrince III,
        Mol. Phys. 114, 423-430 (2015).

            URL: http://dx.doi.org/10.1080/00268976.2015.1078008

        J. Fosso-Tande, T.-S. Nguyen, G. Gidofalvi, and
        A. E. DePrince III, J. Chem. Theory Comput. accepted (2016).

            URL: http://dx.doi.org/10.1021/acs.jctc.6b00190



  ==> Convergence parameters <==

        r_convergence:                      1.000e-06
        e_convergence:                      1.000e-08
        cg_convergence:                     1.000e-09
        maxiter:                                20000
        cg_maxiter:                             10000

  ==> Active space details <==

        Number of frozen core orbitals:             0
        Number of restricted occupied orbitals:     0
        Number of active occupied orbitals:         1
        Number of active virtual orbitals:          1
        Number of restricted virtual orbitals:      8
        Number of frozen virtual orbitals:          0

        Irrep:              A 
 
        frozen_docc     [   0 ]
        restricted_docc [   0 ]
        active          [   2 ]
        restricted_uocc [   8 ]
        frozen_uocc     [   0 ]

  ==> Orbital optimization parameters <==

        1-step algorithm:                    true
        g_convergence:                  1.000e-06
        e_convergence:                  1.000e-08
        maximum iterations:                    20
        frequency:                            500
        active-active rotations:            false
        exact diagonal Hessian:             false
        number of DIIS vectors:                 0
        print iteration info:               false

  ==> Memory requirements <==

        D2:                          0.00 mb

        Total number of variables:             50
        Total number of constraints:           51
        Total memory requirements:        0.02 mb

    ==> Transform three-electron integrals <==


        Time for integral transformation:     0.01 s

    Molecular point group: c1
    Full point group: D_inf_h

    Geometry (in Angstrom), charge = 0, multiplicity = 1:

       Center              X                  Y                   Z               Mass       
    ------------   -----------------  -----------------  -----------------  -----------------
         H            0.000000000000     0.000000000000    -0.500000000000     1.007825032230
         H            0.000000000000     0.000000000000     0.500000000000     1.007825032230

  -AO BASIS SET INFORMATION:
    Name                   = CC-PVDZ
    Blend                  = CC-PVDZ
    Total number of shells = 6
    Number of primitives   = 10
    Number of AO           = 10
    Number of SO           = 10
    Maximum AM             = 1
    Spherical Harmonics    = TRUE

  -Contraction Scheme:
    Atom   Type   All Primitives // Shells:
   ------ ------ --------------------------
       1     H     4s 1p // 2s 1p 
       2     H     4s 1p // 2s 1p 

  ==> AO Basis Functions <==

    [ CC-PVDZ ]
    spherical
    ****
    H   1
    S   3 1.00
                        13.01000000           0.01968500
                         1.96200000           0.13797700
                         0.44460000           0.47814800
    S   1 1.00
                         0.12200000           1.00000000
    P   1 1.00
                         0.72700000           1.00000000
    ****
    H   2
    S   3 1.00
                        13.01000000           0.01968500
                         1.96200000           0.13797700
                         0.44460000           0.47814800
    S   1 1.00
                         0.12200000           1.00000000
    P   1 1.00
                         0.72700000           1.00000000
    ****


    reference energy:          -1.100154720811
    frozen core energy:         0.000000000000
    initial 2-RDM energy:       0.187335716970

      oiter iiter        E(p)        E(d)      E gap)      mu     eps(p)     eps(d)
          0    15   -1.250264   14.423909 1.567417e+01   1.000 1.00809e+01 1.36959e+01
          1    12   -0.322194   -9.591184 9.268990e+00   1.000 1.86372e+00 5.91379e+00
          2    12   -0.809497   -3.658475 2.848977e+00   1.000 7.20406e-01 1.72031e+00
          3    10   -1.051349   -1.672405 6.210560e-01   1.000 1.06088e+00 7.46783e-01
          4    10   -1.079811   -0.612538 4.672734e-01   1.000 8.24532e-01 4.93455e-01
          5    11   -1.056089   -0.361530 6.945594e-01   1.000 3.53419e-01 5.45403e-01
          6    10   -1.046331   -0.599556 4.467757e-01   1.000 9.64144e-02 3.01321e-01
          7    10   -1.068770   -0.718185 3.505847e-01   1.000 7.07692e-02 2.42310e-01
          8     9   -1.080860   -0.799426 2.814341e-01   1.000 1.81417e-01 1.91096e-01
          9     9   -1.103593   -0.930164 1.734282e-01   1.000 2.12108e-01 1.41927e-01
         10     8   -1.122801   -1.037615 8.518595e-02   1.000 1.92885e-01 1.19046e-01
         11     8   -1.134116   -1.111942 2.217428e-02   1.000 1.53562e-01 1.02625e-01
         12     8   -1.137804   -1.158738 2.093321e-02   1.000 1.09450e-01 8.59673e-02
         13     8   -1.136063   -1.183397 4.733373e-02   1.000 6.70720e-02 7.15127e-02
         14     7   -1.132220   -1.191420 5.920019e-02   1.000 3.01624e-02 5.83226e-02
         15     5   -1.127332   -1.186624 5.929168e-02   1.000 6.56828e-03 4.51115e-02
         16    10   -1.124095   -1.172700 4.860485e-02   1.000 2.22996e-02 3.18153e-02
         17     8   -1.121926   -1.153703 3.177695e-02   1.000 3.39042e-02 1.89089e-02
         18     8   -1.121169   -1.133392 1.222218e-02   1.000 3.71943e-02 8.04674e-03
         19     9   -1.121399   -1.115696 5.702767e-03   1.000 3.33291e-02 7.23747e-03
         20     9   -1.122450   -1.102773 1.967772e-02   1.000 2.44814e-02 1.30062e-02
         21     8   -1.123933   -1.095966 2.796699e-02   1.000 1.31460e-02 1.63983e-02
         22     4   -1.125360   -1.095259 3.010042e-02   1.000 1.77774e-03 1.66576e-02
         23     9   -1.126766   -1.099645 2.712063e-02   1.000 7.94245e-03 1.43133e-02
         24     8   -1.127671   -1.107357 2.031408e-02   1.000 1.44222e-02 1.03116e-02
         25     8   -1.128131   -1.116512 1.161948e-02   1.000 1.73264e-02 5.89060e-03
         26     9   -1.128151   -1.125346 2.805027e-03   1.000 1.68698e-02 3.25720e-03
         27     9   -1.127783   -1.132511 4.728844e-03   1.000 1.37997e-02 4.72444e-03
         28     8   -1.127162   -1.137161 9.998733e-03   1.000 9.12801e-03 6.62207e-03
         29     8   -1.126455   -1.139052 1.259702e-02   1.000 3.90901e-03 7.37302e-03
         30     7   -1.125770   -1.138430 1.266004e-02   1.000 9.63465e-04 6.90028e-03
         31     9   -1.125245   -1.135867 1.062207e-02   1.000 4.65563e-03 5.48102e-03
         32     8   -1.124923   -1.132169 7.245699e-03   1.000 6.90003e-03 3.54208e-03
         33     8   -1.124797   -1.128174 3.377410e-03   1.000 7.58320e-03 1.65790e-03
         34     9   -1.124864   -1.124559 3.053687e-04   1.000 6.90134e-03 1.32334e-03
         35     9   -1.125077   -1.121846 3.231772e-03   1.000 5.22939e-03 2.38457e-03
         36     8   -1.125372   -1.120307 5.065035e-03   1.000 3.03345e-03 3.08752e-03
         37     5   -1.125650   -1.119959 5.690603e-03   1.000 7.68688e-04 3.20790e-03
         38     9   -1.125958   -1.120641 5.317421e-03   1.000 1.19859e-03 2.81300e-03
         39     8   -1.126152   -1.122031 4.120451e-03   1.000 2.57201e-03 2.06613e-03
         40     8   -1.126258   -1.123765 2.492791e-03   1.000 3.26215e-03 1.18062e-03
         41     8   -1.126274   -1.125494 7.793430e-04   1.000 3.28856e-03 5.10442e-04
         42     9   -1.126215   -1.126940 7.249713e-04   1.000 2.77509e-03 7.70735e-04
         43     9   -1.126103   -1.127924 1.821396e-03   1.000 1.91227e-03 1.20516e-03
         44     8   -1.125967   -1.128374 2.407542e-03   1.000 9.08636e-04 1.40672e-03
         45     4   -1.125828   -1.128324 2.496711e-03   1.000 6.77131e-05 1.35742e-03
         46    10   -1.125726   -1.127876 2.150428e-03   1.000 8.12807e-04 1.10832e-03
         47     8   -1.125657   -1.127181 1.524154e-03   1.000 1.29499e-03 7.41082e-04
         48     8   -1.125626   -1.126403 7.771519e-04   1.000 1.47231e-03 3.58718e-04
         49     8   -1.125634   -1.125681 4.637676e-05   1.000 1.37666e-03 2.18162e-04
         50     9   -1.125672   -1.125123 5.490001e-04   1.000 1.07554e-03 4.25210e-04
         51     8   -1.125727   -1.124787 9.396624e-04   1.000 6.58859e-04 5.80439e-04
         52     7   -1.125786   -1.124685 1.101239e-03   1.000 2.17371e-04 6.21947e-04
         53     8   -1.125843   -1.124788 1.054818e-03   1.000 1.78067e-04 5.59799e-04
         54     9   -1.125884   -1.125040 8.434752e-04   1.000 4.63849e-04 4.23308e-04
         55     8   -1.125906   -1.125371 5.353607e-04   1.000 6.19695e-04 2.51928e-04
         56     8   -1.125912   -1.125710 2.026011e-04   1.000 6.44250e-04 1.02816e-04
         57     9   -1.125903   -1.126002 9.882481e-05   1.000 5.59317e-04 1.29554e-04
         58     9   -1.125883   -1.126209 3.259234e-04   1.000 4.00243e-04 2.20836e-04
         59     8   -1.125857   -1.126312 4.557698e-04   1.000 2.07371e-04 2.68777e-04
         60     4   -1.125831   -1.126317 4.863791e-04   1.000 2.00255e-05 2.66754e-04
         61    10   -1.125808   -1.126240 4.316852e-04   1.000 1.37538e-04 2.23755e-04
         62     8   -1.125794   -1.126111 3.173559e-04   1.000 2.40206e-04 1.54903e-04
         63     8   -1.125787   -1.125961 1.741720e-04   1.000 2.83832e-04 7.90480e-05
         64     8   -1.125787   -1.125817 3.027055e-05   1.000 2.72938e-04 3.72808e-05
         65     9   -1.125794   -1.125703 9.042964e-05   1.000 2.19753e-04 7.50790e-05
         66     8   -1.125804   -1.125631 1.729873e-04   1.000 1.41324e-04 1.08702e-04
         67     8   -1.125816   -1.125604 2.115766e-04   1.000 5.53181e-05 1.20428e-04
         68     8   -1.125827   -1.125618 2.084172e-04   1.000 2.37692e-05 1.11302e-04
         69     9   -1.125835   -1.125664 1.715565e-04   1.000 8.27046e-05 8.66605e-05
         70     8   -1.125840   -1.125726 1.139682e-04   1.000 1.17064e-04 5.38818e-05
         71     8   -1.125842   -1.125792 4.948793e-05   1.000 1.25660e-04 2.26964e-05
         72     9   -1.125840   -1.125851 1.070108e-05   1.000 1.12200e-04 2.16814e-05
         73     9   -1.125837   -1.125894 5.739813e-05   1.000 8.31400e-05 4.02545e-05
         74     8   -1.125832   -1.125917 8.569569e-05   1.000 4.62778e-05 5.11849e-05
         75     4   -1.125827   -1.125921 9.436145e-05   1.000 9.12221e-06 5.22858e-05
         76     9   -1.125822   -1.125908 8.621670e-05   1.000 2.24989e-05 4.50514e-05
         77     8   -1.125819   -1.125885 6.558096e-05   1.000 4.41515e-05 3.22667e-05
         78     8   -1.125817   -1.125856 3.831034e-05   1.000 5.44307e-05 1.74509e-05
         79     8   -1.125817   -1.125827 1.010800e-05   1.000 5.38704e-05 6.99642e-06
         80     9   -1.125818   -1.125804 1.423971e-05   1.000 4.46555e-05 1.31206e-05
         81     8   -1.125820   -1.125789 3.156127e-05   1.000 3.00069e-05 2.02571e-05
         82     8   -1.125823   -1.125782 4.038839e-05   1.000 1.33367e-05 2.32398e-05
         83     5   -1.125825   -1.125784 4.110415e-05   1.000 2.44051e-06 2.20678e-05
         84    10   -1.125827   -1.125792 3.474547e-05   1.000 1.45173e-05 1.76813e-05
         85     8   -1.125828   -1.125804 2.403974e-05   1.000 2.19747e-05 1.14667e-05
         86     8   -1.125828   -1.125816 1.158143e-05   1.000 2.44064e-05 5.15816e-06
         87     9   -1.125828   -1.125828 3.599829e-07   1.000 2.24051e-05 3.62566e-06
         88     9   -1.125827   -1.125837 9.911987e-06   1.000 1.71548e-05 7.27937e-06
         89     8   -1.125826   -1.125842 1.599906e-05   1.000 1.01490e-05 9.70426e-06
         90     5   -1.125825   -1.125844 1.818333e-05   1.000 2.83017e-06 1.02154e-05
         91     8   -1.125824   -1.125842 1.720531e-05   1.000 3.51252e-06 9.03936e-06
         92     8   -1.125824   -1.125837 1.346902e-05   1.000 8.04079e-06 6.68841e-06
         93     8   -1.125823   -1.125832 8.302971e-06   1.000 1.03874e-05 3.82380e-06
         94     8   -1.125823   -1.125826 2.803358e-06   1.000 1.05881e-05 1.46439e-06
         95     9   -1.125823   -1.125821 2.090469e-06   1.000 9.02990e-06 2.26531e-06
         96     9   -1.125824   -1.125818 5.693876e-06   1.000 6.30987e-06 3.75301e-06
         97     8   -1.125824   -1.125817 7.669653e-06   1.000 3.09873e-06 4.46807e-06
         98     4   -1.125825   -1.125817 8.035922e-06   1.000 1.74177e-07 4.35978e-06
         99    11   -1.125825   -1.125818 6.991180e-06   1.000 2.49667e-06 3.59194e-06
        100     8   -1.125825   -1.125820 5.027544e-06   1.000 4.09557e-06 2.42320e-06
        101     8   -1.125825   -1.125823 2.630926e-06   1.000 4.71910e-06 1.17128e-06
        102     9   -1.125825   -1.125825 2.748793e-07   1.000 4.45444e-06 6.18447e-07
        103     9   -1.125825   -1.125827 1.668959e-06   1.000 3.51810e-06 1.30351e-06
        104     8   -1.125825   -1.125828 2.964096e-06   1.000 2.19445e-06 1.83040e-06
        105     7   -1.125825   -1.125828 3.522665e-06   1.000 7.73150e-07 1.98752e-06
        106     8   -1.125825   -1.125828 3.405936e-06   1.000 5.05446e-07 1.80622e-06
        107     8   -1.125825   -1.125827 2.752345e-06   1.000 1.44635e-06 1.37877e-06
        108     8   -1.125824   -1.125826 1.778090e-06   1.000 1.97025e-06 8.29547e-07
        109     8   -1.125824   -1.125825 7.097487e-07   1.000 2.07178e-06 3.29093e-07
        110     9   -1.125824   -1.125824 2.684895e-07   1.000 1.81703e-06 3.85664e-07
        111     9   -1.125825   -1.125824 1.012900e-06   1.000 1.31697e-06 6.89920e-07
        112     8   -1.125825   -1.125823 1.447824e-06   1.000 7.01107e-07 8.54994e-07
        113     4   -1.125825   -1.125823 1.561748e-06   1.000 9.52266e-08 8.57652e-07
        114     9   -1.125825   -1.125823 1.401238e-06   1.000 4.17242e-07 7.26274e-07
        115     8   -1.125825   -1.125824 1.043483e-06   1.000 7.56549e-07 5.08385e-07
        116     8   -1.125825   -1.125824 5.857721e-07   1.000 9.07402e-07 2.63171e-07
        117     9   -1.125825   -1.125825 1.223435e-07   1.000 8.81410e-07 1.11936e-07
        118     9   -1.125825   -1.125825 2.708897e-07   1.000 7.17299e-07 2.30462e-07
        119     8   -1.125825   -1.125825 5.438895e-07   1.000 4.68988e-07 3.42974e-07
        120     8   -1.125825   -1.125825 6.751331e-07   1.000 1.92704e-07 3.85093e-07
        121     7   -1.125825   -1.125825 6.724340e-07   1.000 6.31705e-08 3.59341e-07
        122     8   -1.125825   -1.125825 5.585641e-07   1.000 2.56470e-07 2.82597e-07
        123     8   -1.125825   -1.125825 3.773189e-07   1.000 3.71140e-07 1.78125e-07
        124     8   -1.125825   -1.125825 1.702285e-07   1.000 4.03376e-07 7.58216e-08
        125     9   -1.125825   -1.125825 2.428787e-08   1.000 3.63780e-07 6.49385e-08
        126     9   -1.125825   -1.125825 1.770682e-07   1.000 2.72812e-07 1.25668e-07
        127     8   -1.125825   -1.125824 2.713735e-07   1.000 1.55391e-07 1.62710e-07
        128     5   -1.125825   -1.125824 3.020290e-07   1.000 3.54205e-08 1.68087e-07
        129     8   -1.125825   -1.125824 2.799329e-07   1.000 6.73146e-08 1.46211e-07
        130     8   -1.125825   -1.125825 2.149297e-07   1.000 1.38656e-07 1.05916e-07
        131     8   -1.125825   -1.125825 1.279530e-07   1.000 1.73760e-07 5.83240e-08
        132     8   -1.125825   -1.125825 3.750649e-08   1.000 1.73697e-07 2.23608e-08
        133     8   -1.125825   -1.125825 4.196924e-08   1.000 1.45579e-07 4.02322e-08
        134     8   -1.125825   -1.125825 9.880964e-08   1.000 9.92135e-08 6.38745e-08
        135     8   -1.125825   -1.125825 1.286485e-07   1.000 4.57885e-08 7.42840e-08
        136     3   -1.125825   -1.125825 1.325185e-07   1.000 5.16631e-09 7.13135e-08
        137     8   -1.125825   -1.125825 1.131188e-07   1.000 4.48095e-08 5.76944e-08
        138     8   -1.125825   -1.125825 7.942660e-08   1.000 6.96274e-08 3.79207e-08
        139     8   -1.125825   -1.125825 3.938657e-08   1.000 7.83417e-08 1.74213e-08
        140     8   -1.125825   -1.125825 7.590963e-10   1.000 7.26505e-08 1.09784e-08

      v2RDM iterations converged!

    Molecular point group: c1
    Full point group: D_inf_h

    Geometry (in Angstrom), charge = 0, multiplicity = 1:

       Center              X                  Y                   Z               Mass       
    ------------   -----------------  -----------------  -----------------  -----------------
         H            0.000000000000     0.000000000000    -0.500000000000     1.007825032230
         H            0.000000000000     0.000000000000     0.500000000000     1.007825032230

  -AO BASIS SET INFORMATION:
    Name                   = CC-PVDZ
    Blend                  = CC-PVDZ
    Total number of shells = 6
    Number of primitives   = 10
    Number of AO           = 10
    Number of SO           = 10
    Maximum AM             = 1
    Spherical Harmonics    = TRUE

  -Contraction Scheme:
    Atom   Type   All Primitives // Shells:
   ------ ------ --------------------------
       1     H     4s 1p // 2s 1p 
       2     H     4s 1p // 2s 1p 

  ==> AO Basis Functions <==

    [ CC-PVDZ ]
    spherical
    ****
    H   1
    S   3 1.00
                        13.01000000           0.01968500
                         1.96200000           0.13797700
                         0.44460000           0.47814800
    S   1 1.00
                         0.12200000           1.00000000
    P   1 1.00
                         0.72700000           1.00000000
    ****
    H   2
    S   3 1.00
                        13.01000000           0.01968500
                         1.96200000           0.13797700
                         0.44460000           0.47814800
    S   1 1.00
                         0.12200000           1.00000000
    P   1 1.00
                         0.72700000           1.00000000
    ****

      na:                                    1.000000
      nb:                                    1.000000
      v2RDM total spin [S(S+1)]:             0.000000

      Nuclear Repulsion Energy:                0.529177210670
      Two-Electron Energy:                     0.527752496222
      Kinetic Energy:                          0.936681581899
      Electron-Nuclear Potential Energy:      -3.119436030537

    * v2RDM total energy:                     -1.125824741746


 # Natural Orbital Occupation Numbers (alpha) #
 Irrep: 1
      1:  0.9728296
      2:  0.0271704
      3:  0.0000000
      4:  0.0000000
      5:  0.0000000
      6:  0.0000000
      7:  0.0000000
      8:  0.0000000
      9:  0.0000000
     10:  0.0000000


 # Natural Orbital Occupation Numbers (beta) #
 Irrep: 1
      1:  0.9728296
      2:  0.0271704
      3:  0.0000000
      4:  0.0000000
      5:  0.0000000
      6:  0.0000000
      7:  0.0000000
      8:  0.0000000
      9:  0.0000000
     10:  0.0000000


  ==> Iteration count <==

      Microiterations:                    1152
      Macroiterations:                     141
      Orbital optimization steps:            0

  ==> Wall time <==

      Microiterations:                    0.01 s
      Macroiterations:                    0.01 s
      Orbital optimization:               0.00 s
      Total:                              0.03 s

  ## C ACTIVE (Symmetry 0) ##
  Irrep: 1 Size: 10 x 2

                 1                   2

    1     0.37534984178599     0.66748177285552
    2     0.23045845913484     0.52467402340744
    3     0.01935096271409    -0.03335712380029
    4    -0.00000000000000     0.00000000000000
    5    -0.00000000000000    -0.00000000000000
    6     0.37534979378367    -0.66748154968932
    7     0.23045854382925    -0.52467431765182
    8    -0.01935096605185    -0.03335742116873
    9     0.00000000000000    -0.00000000000000
   10    -0.00000000000000     0.00000000000000



  ## C ACTIVE (Symmetry 0) ##
  Irrep: 1 Size: 10 x 2

                 1                   2

    1     0.37534984178599     0.66748177285552
    2     0.23045845913484     0.52467402340744
    3     0.01935096271409    -0.03335712380029
    4    -0.00000000000000     0.00000000000000
    5    -0.00000000000000    -0.00000000000000
    6     0.37534979378367    -0.66748154968932
    7     0.23045854382925    -0.52467431765182
    8    -0.01935096605185    -0.03335742116873
    9     0.00000000000000    -0.00000000000000
   10    -0.00000000000000     0.00000000000000



   @DF-MCSCF  2:     -1.125824741746   -1.7474e-02  1.47e-02  0.00e+00    0    1  TS

    <<< WARNING!! >>>

    The ACTIVE array takes precedence over the RESTRICTED_UOCC array.
    Check below whether your active space was correctly specified.



        ****************************************************
        *                                                  *
        *    v2RDM-CASSCF                                  *
        *                                                  *
        *    A variational 2-RDM-driven approach to the    *
        *    active space self-consistent field method     *
        *                                                  *
        ****************************************************


        The following papers should be cited when using v2RDM-CASSCF:

        J. Fosso-Tande, D. R. Nascimento, and A. E. DePrince III,
        Mol. Phys. 114, 423-430 (2015).

            URL: http://dx.doi.org/10.1080/00268976.2015.1078008

        J. Fosso-Tande, T.-S. Nguyen, G. Gidofalvi, and
        A. E. DePrince III, J. Chem. Theory Comput. accepted (2016).

            URL: http://dx.doi.org/10.1021/acs.jctc.6b00190



  ==> Convergence parameters <==

        r_convergence:                      1.000e-06
        e_convergence:                      1.000e-08
        cg_convergence:                     1.000e-09
        maxiter:                                20000
        cg_maxiter:                             10000

  ==> Active space details <==

        Number of frozen core orbitals:             0
        Number of restricted occupied orbitals:     0
        Number of active occupied orbitals:         1
        Number of active virtual orbitals:          1
        Number of restricted virtual orbitals:      8
        Number of frozen virtual orbitals:          0

        Irrep:              A 
 
        frozen_docc     [   0 ]
        restricted_docc [   0 ]
        active          [   2 ]
        restricted_uocc [   8 ]
        frozen_uocc     [   0 ]

  ==> Orbital optimization parameters <==

        1-step algorithm:                    true
        g_convergence:                  1.000e-06
        e_convergence:                  1.000e-08
        maximum iterations:                    20
        frequency:                            500
        active-active rotations:            false
        exact diagonal Hessian:             false
        number of DIIS vectors:                 0
        print iteration info:               false

  ==> Memory requirements <==

        D2:                          0.00 mb

        Total number of variables:             50
        Total number of constraints:           51
        Total memory requirements:        0.02 mb

    ==> Transform three-electron integrals <==


        Time for integral transformation:     0.01 s

    Molecular point group: c1
    Full point group: D_inf_h

    Geometry (in Angstrom), charge = 0, multiplicity = 1:

       Center              X                  Y                   Z               Mass       
    ------------   -----------------  -----------------  -----------------  -----------------
         H            0.000000000000     0.000000000000    -0.500000000000     1.007825032230
         H            0.000000000000     0.000000000000     0.500000000000     1.007825032230

  -AO BASIS SET INFORMATION:
    Name                   = CC-PVDZ
    Blend                  = CC-PVDZ
    Total number of shells = 6
    Number of primitives   = 10
    Number of AO           = 10
    Number of SO           = 10
    Maximum AM             = 1
    Spherical Harmonics    = TRUE

  -Contraction Scheme:
    Atom   Type   All Primitives // Shells:
   ------ ------ --------------------------
       1     H     4s 1p // 2s 1p 
       2     H     4s 1p // 2s 1p 

  ==> AO Basis Functions <==

    [ CC-PVDZ ]
    spherical
    ****
    H   1
    S   3 1.00
                        13.01000000           0.01968500
                         1.96200000           0.13797700
                         0.44460000           0.47814800
    S   1 1.00
                         0.12200000           1.00000000
    P   1 1.00
                         0.72700000           1.00000000
    ****
    H   2
    S   3 1.00
                        13.01000000           0.01968500
                         1.96200000           0.13797700
                         0.44460000           0.47814800
    S   1 1.00
                         0.12200000           1.00000000
    P   1 1.00
                         0.72700000           1.00000000
    ****


    reference energy:          -1.100154720811
    frozen core energy:         0.000000000000
    initial 2-RDM energy:       0.041086590152

      oiter iiter        E(p)        E(d)      E gap)      mu     eps(p)     eps(d)
          0    15   -1.119569   14.459474 1.557904e+01   1.000 1.00806e+01 1.36963e+01
          1    12   -0.285542   -9.554906 9.269363e+00   1.000 1.87574e+00 5.91156e+00
          2    12   -0.802147   -3.630370 2.828223e+00   1.000 7.23299e-01 1.72480e+00
          3    10   -1.039986   -1.650040 6.100535e-01   1.000 1.05196e+00 7.52957e-01
          4    10   -1.075176   -0.613695 4.614812e-01   1.000 8.06273e-01 5.02989e-01
          5    11   -1.055911   -0.381412 6.744986e-01   1.000 3.46980e-01 5.21547e-01
          6    10   -1.055879   -0.576991 4.788877e-01   1.000 9.98206e-02 3.13459e-01
          7    10   -1.074253   -0.702363 3.718907e-01   1.000 8.88553e-02 2.50639e-01
          8     9   -1.090353   -0.795630 2.947236e-01   1.000 1.99205e-01 1.92626e-01
          9     8   -1.115335   -0.936452 1.788828e-01   1.000 2.24662e-01 1.43414e-01
         10     9   -1.133905   -1.045874 8.803169e-02   1.000 2.04635e-01 1.18206e-01
         11     8   -1.147411   -1.125443 2.196745e-02   1.000 1.61898e-01 9.78381e-02
         12     9   -1.142571   -1.190735 4.816367e-02   1.000 1.14652e-01 8.38837e-02
         13     8   -1.135520   -1.205901 7.038065e-02   1.000 7.05124e-02 7.11591e-02
         14     7   -1.134459   -1.200507 6.604836e-02   1.000 2.93542e-02 6.01639e-02
         15     7   -1.127881   -1.201665 7.378417e-02   1.000 7.45281e-03 4.79715e-02
         16    10   -1.123962   -1.184773 6.081086e-02   1.000 2.86605e-02 3.46727e-02
         17     8   -1.121370   -1.161732 4.036144e-02   1.000 4.20519e-02 2.05753e-02
         18     8   -1.120514   -1.137199 1.668570e-02   1.000 4.56916e-02 7.78488e-03
         19     9   -1.120925   -1.115710 5.215267e-03   1.000 4.09018e-02 7.67763e-03
         20     9   -1.122388   -1.099901 2.248758e-02   1.000 3.01962e-02 1.52029e-02
         21     8   -1.124394   -1.091439 3.295550e-02   1.000 1.64958e-02 1.94536e-02
         22     4   -1.126312   -1.090311 3.600132e-02   1.000 2.68673e-03 1.98784e-02
         23     9   -1.128225   -1.095414 3.281068e-02   1.000 9.11308e-03 1.71334e-02
         24     8   -1.129457   -1.104554 2.490348e-02   1.000 1.70770e-02 1.23277e-02
         25     8   -1.130084   -1.115531 1.455244e-02   1.000 2.07518e-02 6.88126e-03
         26     8   -1.130109   -1.126201 3.907945e-03   1.000 2.03751e-02 3.33968e-03
         27     9   -1.129659   -1.134898 5.238722e-03   1.000 1.67935e-02 5.27930e-03
         28     8   -1.128847   -1.140640 1.179283e-02   1.000 1.12433e-02 7.76495e-03
         29     8   -1.127910   -1.143059 1.514893e-02   1.000 4.97457e-03 8.80799e-03
         30     7   -1.126998   -1.142440 1.544175e-02   1.000 9.30460e-04 8.34080e-03
         31     9   -1.126287   -1.139441 1.315448e-02   1.000 5.45599e-03 6.69585e-03
         32     8   -1.125841   -1.135021 9.179902e-03   1.000 8.26648e-03 4.37452e-03
         33     8   -1.125663   -1.130181 4.517446e-03   1.000 9.19960e-03 2.02222e-03
         34     9   -1.125742   -1.125754 1.260931e-05   1.000 8.46759e-03 1.40591e-03
         35     9   -1.126021   -1.122379 3.641606e-03   1.000 6.51035e-03 2.74945e-03
         36     8   -1.126406   -1.120415 5.991227e-03   1.000 3.87751e-03 3.67266e-03
         37     6   -1.126804   -1.119892 6.911638e-03   1.000 1.12919e-03 3.88161e-03
         38     9   -1.127198   -1.120628 6.570085e-03   1.000 1.29177e-03 3.45337e-03
         39     8   -1.127466   -1.122263 5.202724e-03   1.000 3.02007e-03 2.57701e-03
         40     8   -1.127617   -1.124350 3.266943e-03   1.000 3.92812e-03 1.50109e-03
         41     8   -1.127645   -1.126466 1.178862e-03   1.000 4.02776e-03 6.01663e-04
         42     9   -1.127575   -1.128263 6.875831e-04   1.000 3.45547e-03 8.46594e-04
         43     9   -1.127429   -1.129519 2.089240e-03   1.000 2.43856e-03 1.40936e-03
         44     8   -1.127248   -1.130129 2.881148e-03   1.000 1.22688e-03 1.69246e-03
         45     3   -1.127069   -1.130126 3.057136e-03   1.000 7.46858e-05 1.66506e-03
         46    10   -1.126919   -1.129620 2.700901e-03   1.000 9.08426e-04 1.38651e-03
         47     8   -1.126820   -1.128799 1.978432e-03   1.000 1.53362e-03 9.50999e-04
         48     8   -1.126774   -1.127854 1.079572e-03   1.000 1.79033e-03 4.76111e-04
         49     8   -1.126780   -1.126958 1.784267e-04   1.000 1.70881e-03 2.31659e-04
         50     9   -1.126827   -1.126249 5.782252e-04   1.000 1.36719e-03 4.79149e-04
         51     8   -1.126900   -1.125804 1.095709e-03   1.000 8.71629e-04 6.87796e-04
         52     8   -1.126981   -1.125645 1.336153e-03   1.000 3.31212e-04 7.58358e-04
         53     8   -1.127057   -1.125741 1.315763e-03   1.000 1.62743e-04 6.98697e-04
         54     8   -1.127115   -1.126030 1.084543e-03   1.000 5.30128e-04 5.42499e-04
         55     8   -1.127149   -1.126426 7.224562e-04   1.000 7.42690e-04 3.35900e-04
         56     8   -1.127160   -1.126844 3.159808e-04   1.000 7.94045e-04 1.39856e-04
         57     9   -1.127149   -1.127213 6.337454e-05   1.000 7.07221e-04 1.36744e-04
         58     9   -1.127123   -1.127483 3.596592e-04   1.000 5.23234e-04 2.54470e-04
         59     8   -1.127089   -1.127629 5.406182e-04   1.000 2.90686e-04 3.23468e-04
         60     4   -1.127056   -1.127654 5.979611e-04   1.000 5.64484e-05 3.30634e-04
         61     9   -1.127022   -1.127571 5.491043e-04   1.000 1.42945e-04 2.85328e-04
         62     8   -1.127001   -1.127421 4.206499e-04   1.000 2.79768e-04 2.04910e-04
         63     8   -1.126990   -1.127239 2.490501e-04   1.000 3.45134e-04 1.11304e-04
         64     8   -1.126989   -1.127059 7.063566e-05   1.000 3.42069e-04 4.37651e-05
         65     9   -1.126996   -1.126911 8.511851e-05   1.000 2.84438e-04 8.18388e-05
         66     9   -1.127010   -1.126813 1.969691e-04   1.000 1.92064e-04 1.27665e-04
         67     8   -1.127026   -1.126770 2.554404e-04   1.000 8.66941e-05 1.47333e-04
         68     5   -1.127042   -1.126779 2.623736e-04   1.000 1.36189e-05 1.40666e-04
         69    10   -1.127053   -1.126829 2.241516e-04   1.000 9.07389e-05 1.13457e-04
         70     8   -1.127061   -1.126903 1.574241e-04   1.000 1.38967e-04 7.43397e-05
         71     8   -1.127064   -1.126985 7.862348e-05   1.000 1.55415e-04 3.40264e-05
         72     9   -1.127063   -1.127060 2.221100e-06   1.000 1.43619e-04 2.20590e-05
         73     9   -1.127058   -1.127118 5.977164e-05   1.000 1.10940e-04 4.52914e-05
         74     8   -1.127051   -1.127152 1.001807e-04   1.000 6.67350e-05 6.13152e-05
         75     7   -1.127045   -1.127161 1.164720e-04   1.000 2.03417e-05 6.52119e-05
         76     8   -1.127038   -1.127149 1.110394e-04   1.000 2.06231e-05 5.82954e-05
         77     8   -1.127034   -1.127122 8.849422e-05   1.000 5.01605e-05 4.37039e-05
         78     8   -1.127031   -1.127087 5.607722e-05   1.000 6.59077e-05 2.55498e-05
         79     8   -1.127030   -1.127051 2.099002e-05   1.000 6.79612e-05 9.84208e-06
         80     9   -1.127032   -1.127021 1.080961e-05   1.000 5.86623e-05 1.36508e-05
         81     9   -1.127034   -1.126999 3.469762e-05   1.000 4.16961e-05 2.34193e-05
         82     8   -1.127037   -1.126989 4.838182e-05   1.000 2.13061e-05 2.84141e-05
         83     4   -1.127040   -1.126988 5.162269e-05   1.000 1.72066e-06 2.81214e-05
         84    10   -1.127043   -1.126997 4.585563e-05   1.000 1.49450e-05 2.35311e-05
         85     8   -1.127044   -1.127010 3.382094e-05   1.000 2.56562e-05 1.62286e-05
         86     8   -1.127045   -1.127026 1.867618e-05   1.000 3.01603e-05 8.17667e-06
         87     9   -1.127045   -1.127042 3.424701e-06   1.000 2.89318e-05 3.74720e-06
         88     9   -1.127044   -1.127054 9.425754e-06   1.000 2.32713e-05 7.90474e-06
         89     8   -1.127043   -1.127061 1.828648e-05   1.000 1.49618e-05 1.15025e-05
         90     8   -1.127042   -1.127064 2.246955e-05   1.000 5.83987e-06 1.27675e-05
         91     7   -1.127040   -1.127063 2.225941e-05   1.000 2.52116e-06 1.18198e-05
         92     9   -1.127039   -1.127058 1.842931e-05   1.000 8.78942e-06 9.22478e-06
         93     8   -1.127039   -1.127051 1.239249e-05   1.000 1.24459e-05 5.75186e-06
         94     8   -1.127039   -1.127044 5.520969e-06   1.000 1.33955e-05 2.40403e-06
         95     9   -1.127039   -1.127038 8.987224e-07   1.000 1.19932e-05 2.22449e-06
         96     9   -1.127039   -1.127033 5.945272e-06   1.000 8.92843e-06 4.23261e-06
         97     8   -1.127040   -1.127031 9.058269e-06   1.000 5.02068e-06 5.43057e-06
         98     5   -1.127040   -1.127030 1.007070e-05   1.000 1.05532e-06 5.58369e-06
         99     9   -1.127041   -1.127032 9.325159e-06   1.000 2.32901e-06 4.84182e-06
        100     8   -1.127041   -1.127034 7.177136e-06   1.000 4.66882e-06 3.49747e-06
        101     8   -1.127041   -1.127037 4.293357e-06   1.000 5.80503e-06 1.91773e-06
        102     8   -1.127041   -1.127040 1.265289e-06   1.000 5.78848e-06 7.38096e-07
        103     9   -1.127041   -1.127043 1.365942e-06   1.000 4.83572e-06 1.34958e-06
        104     9   -1.127041   -1.127044 3.279439e-06   1.000 3.28901e-06 2.13465e-06
        105     8   -1.127041   -1.127045 4.291921e-06   1.000 1.51293e-06 2.48043e-06
        106     4   -1.127041   -1.127045 4.436247e-06   1.000 1.88063e-07 2.38116e-06
        107    10   -1.127040   -1.127044 3.807021e-06   1.000 1.49983e-06 1.93005e-06
        108     8   -1.127040   -1.127043 2.695513e-06   1.000 2.32790e-06 1.27328e-06
        109     8   -1.127040   -1.127042 1.361796e-06   1.000 2.62217e-06 5.89473e-07
        110     8   -1.127040   -1.127040 7.147463e-08   1.000 2.43511e-06 3.61833e-07
        111     9   -1.127040   -1.127039 9.840246e-07   1.000 1.89123e-06 7.53323e-07
        112     8   -1.127040   -1.127039 1.677128e-06   1.000 1.14859e-06 1.02960e-06
        113     7   -1.127041   -1.127039 1.963199e-06   1.000 3.64820e-07 1.10118e-06
        114     8   -1.127041   -1.127039 1.881284e-06   1.000 3.31183e-07 9.89054e-07
        115     8   -1.127041   -1.127039 1.507663e-06   1.000 8.35470e-07 7.45556e-07
        116     8   -1.127041   -1.127040 9.626215e-07   1.000 1.10822e-06 4.39740e-07
        117     8   -1.127041   -1.127040 3.705788e-07   1.000 1.14897e-06 1.70288e-07
        118     9   -1.127041   -1.127041 1.686778e-07   1.000 9.96585e-07 2.24842e-07
        119     9   -1.127041   -1.127041 5.763667e-07   1.000 7.12919e-07 3.91360e-07
        120     8   -1.127041   -1.127041 8.123871e-07   1.000 3.69458e-07 4.78290e-07
        121     4   -1.127041   -1.127041 8.715011e-07   1.000 3.60233e-08 4.75739e-07
        122     9   -1.127041   -1.127041 7.786701e-07   1.000 2.45457e-07 4.00005e-07
        123     8   -1.127041   -1.127041 5.775702e-07   1.000 4.29135e-07 2.77634e-07
        124     8   -1.127041   -1.127041 3.218687e-07   1.000 5.08465e-07 1.41515e-07
        125     8   -1.127041   -1.127041 6.484832e-08   1.000 4.90069e-07 6.25268e-08
        126     9   -1.127041   -1.127040 1.538222e-07   1.000 3.96210e-07 1.31169e-07
        127     8   -1.127041   -1.127040 3.054755e-07   1.000 2.56811e-07 1.92913e-07
        128     8   -1.127041   -1.127040 3.783200e-07   1.000 1.02849e-07 2.15404e-07
        129     7   -1.127041   -1.127040 3.766844e-07   1.000 3.90845e-08 2.00357e-07
        130     8   -1.127041   -1.127040 3.133475e-07   1.000 1.45979e-07 1.57183e-07
        131     8   -1.127041   -1.127040 2.121274e-07   1.000 2.09035e-07 9.87896e-08
        132     8   -1.127041   -1.127041 9.670327e-08   1.000 2.26149e-07 4.18401e-08
        133     8   -1.127041   -1.127041 1.271571e-08   1.000 2.03656e-07 3.65669e-08
        134     8   -1.127041   -1.127041 9.843746e-08   1.000 1.52532e-07 7.05892e-08
        135     8   -1.127041   -1.127041 1.518429e-07   1.000 8.66850e-08 9.13125e-08
        136     4   -1.127041   -1.127041 1.699321e-07   1.000 1.96617e-08 9.43466e-08
        137     5   -1.127041   -1.127041 1.591232e-07   1.000 3.76821e-08 8.22514e-08
        138     8   -1.127041   -1.127041 1.221591e-07   1.000 7.79574e-08 5.97652e-08
        139     8   -1.127041   -1.127041 7.375440e-08   1.000 9.77227e-08 3.31109e-08
        140     8   -1.127041   -1.127041 2.293297e-08   1.000 9.78830e-08 1.26427e-08
        141     8   -1.127041   -1.127041 2.206655e-08   1.000 8.22793e-08 2.23129e-08
        142     8   -1.127041   -1.127041 5.465407e-08   1.000 5.63829e-08 3.57340e-08
        143     5   -1.127041   -1.127041 7.082670e-08   1.000 2.61489e-08 4.17797e-08
        144     3   -1.127041   -1.127041 7.421079e-08   1.000 2.63483e-09 4.02482e-08
        145     4   -1.127041   -1.127041 6.532853e-08   1.000 2.44563e-08 3.29501e-08
        146     7   -1.127041   -1.127041 4.610958e-08   1.000 3.91007e-08 2.19064e-08
        147     5   -1.127041   -1.127041 2.548981e-08   1.000 4.40424e-08 1.03513e-08
        148     8   -1.127041   -1.127041 1.632558e-09   1.000 4.14148e-08 6.10910e-09

      v2RDM iterations converged!

    Molecular point group: c1
    Full point group: D_inf_h

    Geometry (in Angstrom), charge = 0, multiplicity = 1:

       Center              X                  Y                   Z               Mass       
    ------------   -----------------  -----------------  -----------------  -----------------
         H            0.000000000000     0.000000000000    -0.500000000000     1.007825032230
         H            0.000000000000     0.000000000000     0.500000000000     1.007825032230

  -AO BASIS SET INFORMATION:
    Name                   = CC-PVDZ
    Blend                  = CC-PVDZ
    Total number of shells = 6
    Number of primitives   = 10
    Number of AO           = 10
    Number of SO           = 10
    Maximum AM             = 1
    Spherical Harmonics    = TRUE

  -Contraction Scheme:
    Atom   Type   All Primitives // Shells:
   ------ ------ --------------------------
       1     H     4s 1p // 2s 1p 
       2     H     4s 1p // 2s 1p 

  ==> AO Basis Functions <==

    [ CC-PVDZ ]
    spherical
    ****
    H   1
    S   3 1.00
                        13.01000000           0.01968500
                         1.96200000           0.13797700
                         0.44460000           0.47814800
    S   1 1.00
                         0.12200000           1.00000000
    P   1 1.00
                         0.72700000           1.00000000
    ****
    H   2
    S   3 1.00
                        13.01000000           0.01968500
                         1.96200000           0.13797700
                         0.44460000           0.47814800
    S   1 1.00
                         0.12200000           1.00000000
    P   1 1.00
                         0.72700000           1.00000000
    ****

      na:                                    1.000000
      nb:                                    1.000000
      v2RDM total spin [S(S+1)]:            -0.000000

      Nuclear Repulsion Energy:                0.529177210670
      Two-Electron Energy:                     0.529738930715
      Kinetic Energy:                          0.961457537442
      Electron-Nuclear Potential Energy:      -3.147414275772

    * v2RDM total energy:                     -1.127040596944


 # Natural Orbital Occupation Numbers (alpha) #
 Irrep: 1
      1:  0.9731510
      2:  0.0268490
      3:  0.0000000
      4:  0.0000000
      5:  0.0000000
      6:  0.0000000
      7:  0.0000000
      8:  0.0000000
      9:  0.0000000
     10:  0.0000000


 # Natural Orbital Occupation Numbers (beta) #
 Irrep: 1
      1:  0.9731510
      2:  0.0268490
      3:  0.0000000
      4:  0.0000000
      5:  0.0000000
      6:  0.0000000
      7:  0.0000000
      8:  0.0000000
      9:  0.0000000
     10:  0.0000000


  ==> Iteration count <==

      Microiterations:                    1201
      Macroiterations:                     149
      Orbital optimization steps:            0

  ==> Wall time <==

      Microiterations:                    0.01 s
      Macroiterations:                    0.01 s
      Orbital optimization:               0.00 s
      Total:                              0.02 s

  ## C ACTIVE (Symmetry 0) ##
  Irrep: 1 Size: 10 x 2

                 1                   2

    1     0.38467263666028     0.74224342952761
    2     0.22264809846433     0.39554658748901
    3     0.01620598654800    -0.00824985405487
    4    -0.00000000000000     0.00000000000000
    5    -0.00000000000000    -0.00000000000000
    6     0.38467259899159    -0.74224323865793
    7     0.22264814698336    -0.39554681105180
    8    -0.01620597991435    -0.00824999407081
    9     0.00000000000000    -0.00000000000000
   10    -0.00000000000000     0.00000000000000



  ## C ACTIVE (Symmetry 0) ##
  Irrep: 1 Size: 10 x 2

                 1                   2

    1     0.38467263666028     0.74224342952761
    2     0.22264809846433     0.39554658748901
    3     0.01620598654800    -0.00824985405487
    4    -0.00000000000000     0.00000000000000
    5    -0.00000000000000    -0.00000000000000
    6     0.38467259899159    -0.74224323865793
    7     0.22264814698336    -0.39554681105180
    8    -0.01620597991435    -0.00824999407081
    9     0.00000000000000    -0.00000000000000
   10    -0.00000000000000     0.00000000000000



   @DF-MCSCF  3:     -1.127040596944   -1.2159e-03  4.17e-03  0.00e+00    0    1  TS

    <<< WARNING!! >>>

    The ACTIVE array takes precedence over the RESTRICTED_UOCC array.
    Check below whether your active space was correctly specified.



        ****************************************************
        *                                                  *
        *    v2RDM-CASSCF                                  *
        *                                                  *
        *    A variational 2-RDM-driven approach to the    *
        *    active space self-consistent field method     *
        *                                                  *
        ****************************************************


        The following papers should be cited when using v2RDM-CASSCF:

        J. Fosso-Tande, D. R. Nascimento, and A. E. DePrince III,
        Mol. Phys. 114, 423-430 (2015).

            URL: http://dx.doi.org/10.1080/00268976.2015.1078008

        J. Fosso-Tande, T.-S. Nguyen, G. Gidofalvi, and
        A. E. DePrince III, J. Chem. Theory Comput. accepted (2016).

            URL: http://dx.doi.org/10.1021/acs.jctc.6b00190



  ==> Convergence parameters <==

        r_convergence:                      1.000e-06
        e_convergence:                      1.000e-08
        cg_convergence:                     1.000e-09
        maxiter:                                20000
        cg_maxiter:                             10000

  ==> Active space details <==

        Number of frozen core orbitals:             0
        Number of restricted occupied orbitals:     0
        Number of active occupied orbitals:         1
        Number of active virtual orbitals:          1
        Number of restricted virtual orbitals:      8
        Number of frozen virtual orbitals:          0

        Irrep:              A 
 
        frozen_docc     [   0 ]
        restricted_docc [   0 ]
        active          [   2 ]
        restricted_uocc [   8 ]
        frozen_uocc     [   0 ]

  ==> Orbital optimization parameters <==

        1-step algorithm:                    true
        g_convergence:                  1.000e-06
        e_convergence:                  1.000e-08
        maximum iterations:                    20
        frequency:                            500
        active-active rotations:            false
        exact diagonal Hessian:             false
        number of DIIS vectors:                 0
        print iteration info:               false

  ==> Memory requirements <==

        D2:                          0.00 mb

        Total number of variables:             50
        Total number of constraints:           51
        Total memory requirements:        0.02 mb

    ==> Transform three-electron integrals <==


        Time for integral transformation:     0.01 s

    Molecular point group: c1
    Full point group: D_inf_h

    Geometry (in Angstrom), charge = 0, multiplicity = 1:

       Center              X                  Y                   Z               Mass       
    ------------   -----------------  -----------------  -----------------  -----------------
         H            0.000000000000     0.000000000000    -0.500000000000     1.007825032230
         H            0.000000000000     0.000000000000     0.500000000000     1.007825032230

  -AO BASIS SET INFORMATION:
    Name                   = CC-PVDZ
    Blend                  = CC-PVDZ
    Total number of shells = 6
    Number of primitives   = 10
    Number of AO           = 10
    Number of SO           = 10
    Maximum AM             = 1
    Spherical Harmonics    = TRUE

  -Contraction Scheme:
    Atom   Type   All Primitives // Shells:
   ------ ------ --------------------------
       1     H     4s 1p // 2s 1p 
       2     H     4s 1p // 2s 1p 

  ==> AO Basis Functions <==

[...]
                Multi-Configurational Self-Consistent Field
                            (a 'D E T C I' module)

                 Daniel G. A. Smith, C. David Sherrill, and
                              Matt L. Leininger
         ---------------------------------------------------------


   ==> Parameters <==

    EX LEVEL       =        2      H0 BLOCKSIZE  =     1000
    VAL EX LEVEL   =        0      H0 GUESS SIZE =     1000
    H0COUPLINGSIZE =        0      H0 COUPLING   =       NO
    MAXITER        =       12      NUM PRINT     =       20
    NUM ROOTS      =        1      ICORE         =        1
    PRINT LVL      =        1      FCI           =      YES
    R CONV         = 1.00e-07      MIXED         =      YES
    E CONV         = 1.00e-06      MIXED4        =      YES
    R4S            =       NO      REPL OTF      =       NO
    DIAG METHOD    =      SEM      FOLLOW ROOT   =        0
    PRECONDITIONER = DAVIDSON      UPDATE        = DAVIDSON
    S              =   0.0000      Ms0           =      YES
    GUESS VECTOR   =  H0BLOCK      OPENTYPE      =     NONE
    COLLAPSE SIZE  =        1      HD AVG        = EVANGELISTI
    MAX NUM VECS   =       13      REF SYM       =     AUTO
    IOPEN        =       NO

    EX ALLOW       =  1  1 
    STATE AVERAGE  =  0(1.00) 

   ==> CI Orbital and Space information <==

   ------------------------------------
               Space    Total     A
   ------------------------------------
                 Nso       10    10
                 Nmo       10    10
               Ndocc        1     1
               Nsocc        0     0
   ------------------------------------
               MCSCF Spaces
   ------------------------------------
         Frozen DOCC        0     0
     Restricted DOCC        0     0
              Active        2     2
     Restricted UOCC        8     8
         Frozen UOCC        0     0
   ------------------------------------

   ==> Setting up CI strings <==

    There are 2 alpha and 2 beta strings
    The CI space requires 4 (4.00E+00) determinants and 1 blocks

   ==> Setting up DF-MCSCF integrals <==

  ==> DiskDFJK: Density-Fitted J/K Matrices <==

    J tasked:                  Yes
    K tasked:                  Yes
    wK tasked:                  No
    OpenMP threads:              1
    Integrals threads:           1
    Memory [MiB]:              400
    Algorithm:                Core
    Integral Cache:           SAVE
    Schwarz Cutoff:          1E-12
    Fitting Condition:       1E-10

   => Auxiliary Basis Set <=

  Basis Set: (CC-PVDZ AUX)
    Blend: CC-PVDZ-JKFIT
    Number of shells: 18
    Number of basis function: 46
    Number of Cartesian functions: 50
    Spherical Harmonics?: true
    Max angular momentum: 2

  DFHelper Memory: AOs need 0.000 GiB; user supplied 0.391 GiB. Using in-core AOs.


   ==> Starting DF-MCSCF iterations <==

           Iter         Total Energy       Delta E   Orb RMS    CI RMS  NCI NORB
  ## MO-basis OPDM <0| Etu |0> (Symmetry 0) ##
  Irrep: 1 Size: 2 x 2

                 1                   2

    1     1.98066845005504     0.00000000000000
    2     0.00000000000000     0.01933154994496



  ## MO-basis TPDM (symmetrized) (Symmetry 0) ##
  Irrep: 1 Size: 4 x 4

                 1                   2                   3                   4

    1     1.98066845005504     0.00000000000000     0.00000000000000     0.00000000000000
    2     0.00000000000000    -0.09783837573602    -0.09783837573602    -0.00000000000000
    3     0.00000000000000    -0.09783837573602    -0.09783837573602    -0.00000000000000
    4     0.00000000000000    -0.00000000000000    -0.00000000000000     0.01933154994496



  ## C ACT (Symmetry 0) ##
  Irrep: 1 Size: 10 x 2

                 1                   2

    1     0.37507201316396     0.20185946090183
    2     0.23022838234554     1.36178519066365
    3     0.02114727490528    -0.00069873066778
    4     0.00000000000000     0.00000000000000
    5    -0.00000000000000    -0.00000000000000
    6     0.37507201316396    -0.20185946090184
    7     0.23022838234554    -1.36178519066364
    8    -0.02114727490528    -0.00069873066778
    9     0.00000000000000     0.00000000000000
   10    -0.00000000000000     0.00000000000000



  ## C ACT (Symmetry 0) ##
  Irrep: 1 Size: 10 x 2

                 1                   2

    1     0.37507201316396     0.20185946090183
    2     0.23022838234554     1.36178519066365
    3     0.02114727490528    -0.00069873066778
    4     0.00000000000000     0.00000000000000
    5    -0.00000000000000    -0.00000000000000
    6     0.37507201316396    -0.20185946090184
    7     0.23022838234554    -1.36178519066364
    8    -0.02114727490528    -0.00069873066778
    9     0.00000000000000     0.00000000000000
   10    -0.00000000000000     0.00000000000000



   @DF-MCSCF  1:     -1.108350697391   -8.1960e-03  9.72e-03  1.91e-15    1    1  Initial CI
  ## MO-basis OPDM <0| Etu |0> (Symmetry 0) ##
  Irrep: 1 Size: 2 x 2

                 1                   2

    1     1.94565919427458    -0.00000000000003
    2    -0.00000000000003     0.05434080572542



  ## MO-basis TPDM (symmetrized) (Symmetry 0) ##
  Irrep: 1 Size: 4 x 4

                 1                   2                   3                   4

    1     1.94565919427458    -0.00000000000004    -0.00000000000004     0.00000000000000
    2    -0.00000000000004    -0.16257974065358    -0.16257974065358     0.00000000000001
    3    -0.00000000000004    -0.16257974065358    -0.16257974065358     0.00000000000001
    4     0.00000000000000     0.00000000000001     0.00000000000001     0.05434080572542



  ## C ACT (Symmetry 0) ##
  Irrep: 1 Size: 10 x 2

                 1                   2

    1     0.37534981894030     0.66747914561926
    2     0.23045850024597     0.52467974655504
    3     0.01935096500241    -0.03335725347381
    4    -0.00000000000000     0.00000000000000
    5    -0.00000000000000    -0.00000000000000
    6     0.37534981894030    -0.66747914561926
    7     0.23045850024596    -0.52467974655503
    8    -0.01935096500241    -0.03335725347381
    9     0.00000000000000    -0.00000000000000
   10    -0.00000000000000     0.00000000000000



  ## C ACT (Symmetry 0) ##
  Irrep: 1 Size: 10 x 2

                 1                   2

    1     0.37534981894030     0.66747914561926
    2     0.23045850024597     0.52467974655504
    3     0.01935096500241    -0.03335725347381
    4    -0.00000000000000     0.00000000000000
    5    -0.00000000000000    -0.00000000000000
    6     0.37534981894030    -0.66747914561926
    7     0.23045850024596    -0.52467974655503
    8    -0.01935096500241    -0.03335725347381
    9     0.00000000000000    -0.00000000000000
   10    -0.00000000000000     0.00000000000000



   @DF-MCSCF  2:     -1.125824710489   -1.7474e-02  1.47e-02  1.60e-14    2    1  TS
  ## MO-basis OPDM <0| Etu |0> (Symmetry 0) ##
  Irrep: 1 Size: 2 x 2

                 1                   2

    1     1.94630201452164    -0.00000000000002
    2    -0.00000000000002     0.05369798547836



  ## MO-basis TPDM (symmetrized) (Symmetry 0) ##
  Irrep: 1 Size: 4 x 4

                 1                   2                   3                   4

    1     1.94630201452164    -0.00000000000002    -0.00000000000002     0.00000000000000
    2    -0.00000000000002    -0.16164196338845    -0.16164196338845     0.00000000000000
    3    -0.00000000000002    -0.16164196338845    -0.16164196338845     0.00000000000000
    4     0.00000000000000     0.00000000000000     0.00000000000000     0.05369798547836



  ## C ACT (Symmetry 0) ##
  Irrep: 1 Size: 10 x 2

                 1                   2

    1     0.38467256868857     0.74224265082538
    2     0.22264816813986     0.39554816165919
    3     0.01620598465008    -0.00825002291762
    4    -0.00000000000000     0.00000000000000
    5    -0.00000000000000    -0.00000000000000
    6     0.38467256868857    -0.74224265082540
    7     0.22264816813987    -0.39554816165917
    8    -0.01620598465008    -0.00825002291763
    9     0.00000000000000    -0.00000000000000
   10    -0.00000000000000     0.00000000000000



  ## C ACT (Symmetry 0) ##
  Irrep: 1 Size: 10 x 2

                 1                   2

    1     0.38467256868857     0.74224265082538
    2     0.22264816813986     0.39554816165919
    3     0.01620598465008    -0.00825002291762
    4    -0.00000000000000     0.00000000000000
    5    -0.00000000000000    -0.00000000000000
    6     0.38467256868857    -0.74224265082540
    7     0.22264816813987    -0.39554816165917
    8    -0.01620598465008    -0.00825002291763
    9     0.00000000000000    -0.00000000000000
   10    -0.00000000000000     0.00000000000000



   @DF-MCSCF  3:     -1.127040585658   -1.2159e-03  4.17e-03  6.73e-15    1    1  TS
  ## MO-basis OPDM <0| Etu |0> (Symmetry 0) ##
  Irrep: 1 Size: 2 x 2

                 1                   2

    1     1.94712751500029    -0.00000000000001
    2    -0.00000000000001     0.05287248499971



  ## MO-basis TPDM (symmetrized) (Symmetry 0) ##
  Irrep: 1 Size: 4 x 4

                 1                   2                   3                   4

    1     1.94712751500029    -0.00000000000001    -0.00000000000001     0.00000000000000
    2    -0.00000000000001    -0.16042869937248    -0.16042869937248     0.00000000000000
    3    -0.00000000000001    -0.16042869937248    -0.16042869937248     0.00000000000000
    4     0.00000000000000     0.00000000000000     0.00000000000000     0.05287248499971



  ## C ACT (Symmetry 0) ##
  Irrep: 1 Size: 10 x 2

                 1                   2

    1     0.38784468113792     0.76662199574408
    2     0.21981899765369     0.34576973995208
    3     0.01571708959607    -0.00286707148458
    4    -0.00000000000000     0.00000000000000
    5    -0.00000000000000    -0.00000000000000
    6     0.38784468113792    -0.76662199574409
    7     0.21981899765370    -0.34576973995208
    8    -0.01571708959607    -0.00286707148458
    9     0.00000000000000    -0.00000000000000
   10    -0.00000000000000     0.00000000000000



  ## C ACT (Symmetry 0) ##
  Irrep: 1 Size: 10 x 2

                 1                   2

    1     0.38784468113792     0.76662199574408
    2     0.21981899765369     0.34576973995208
    3     0.01571708959607    -0.00286707148458
    4    -0.00000000000000     0.00000000000000
    5    -0.00000000000000    -0.00000000000000
    6     0.38784468113792    -0.76662199574409
    7     0.21981899765370    -0.34576973995208
    8    -0.01571708959607    -0.00286707148458
    9     0.00000000000000    -0.00000000000000
   10    -0.00000000000000     0.00000000000000



   @DF-MCSCF  4:     -1.127179836985   -1.3925e-04  1.30e-03  3.47e-15    1    1  TS, DIIS
  ## MO-basis OPDM <0| Etu |0> (Symmetry 0) ##
  Irrep: 1 Size: 2 x 2

                 1                   2

    1     1.94751635046560    -0.00000000000000
    2    -0.00000000000000     0.05248364953440



  ## MO-basis TPDM (symmetrized) (Symmetry 0) ##
  Irrep: 1 Size: 4 x 4

                 1                   2                   3                   4

    1     1.94751635046560    -0.00000000000001    -0.00000000000001     0.00000000000000
    2    -0.00000000000001    -0.15985365619868    -0.15985365619868     0.00000000000000
    3    -0.00000000000001    -0.15985365619868    -0.15985365619868     0.00000000000000
    4     0.00000000000000     0.00000000000000     0.00000000000000     0.05248364953440



  ## C ACT (Symmetry 0) ##
  Irrep: 1 Size: 10 x 2

                 1                   2

    1     0.38886336790901     0.77549377532497
    2     0.21888271966092     0.32711064802820
    3     0.01565661572470    -0.00098010872124
    4    -0.00000000000000     0.00000000000000
    5    -0.00000000000000    -0.00000000000000
    6     0.38886336790900    -0.77549377532497
    7     0.21888271966093    -0.32711064802820
    8    -0.01565661572470    -0.00098010872124
    9     0.00000000000000    -0.00000000000000
   10    -0.00000000000000     0.00000000000000



  ## C ACT (Symmetry 0) ##
  Irrep: 1 Size: 10 x 2

                 1                   2

    1     0.38886336790901     0.77549377532497
    2     0.21888271966092     0.32711064802820
    3     0.01565661572470    -0.00098010872124
    4    -0.00000000000000     0.00000000000000
    5    -0.00000000000000    -0.00000000000000
    6     0.38886336790900    -0.77549377532497
    7     0.21888271966093    -0.32711064802820
    8    -0.01565661572470    -0.00098010872124
    9     0.00000000000000    -0.00000000000000
   10    -0.00000000000000     0.00000000000000



   @DF-MCSCF  5:     -1.127197443028   -1.7606e-05  4.30e-04  1.90e-15    1    1  TS, DIIS
  ## MO-basis OPDM <0| Etu |0> (Symmetry 0) ##
  Irrep: 1 Size: 2 x 2

                 1                   2

    1     1.94783793525337     0.00000000000000
    2     0.00000000000000     0.05216206474663



  ## MO-basis TPDM (symmetrized) (Symmetry 0) ##
  Irrep: 1 Size: 4 x 4

                 1                   2                   3                   4

    1     1.94783793525337     0.00000000000000     0.00000000000000     0.00000000000000
    2     0.00000000000000    -0.15937632234325    -0.15937632234325    -0.00000000000000
    3     0.00000000000000    -0.15937632234325    -0.15937632234325    -0.00000000000000
    4     0.00000000000000    -0.00000000000000    -0.00000000000000     0.05216206474663



  ## C ACT (Symmetry 0) ##
  Irrep: 1 Size: 10 x 2

                 1                   2

    1     0.38952624689213     0.78209981178391
    2     0.21826110647979     0.31334621371027
    3     0.01566129601862     0.00058210175731
    4    -0.00000000000000     0.00000000000000
    5    -0.00000000000000    -0.00000000000000
    6     0.38952624689212    -0.78209981178391
    7     0.21826110647978    -0.31334621371027
    8    -0.01566129601862     0.00058210175731
    9     0.00000000000000    -0.00000000000000
   10    -0.00000000000000     0.00000000000000



  ## C ACT (Symmetry 0) ##
  Irrep: 1 Size: 10 x 2

                 1                   2

    1     0.38952624689213     0.78209981178391
    2     0.21826110647979     0.31334621371027
    3     0.01566129601862     0.00058210175731
    4    -0.00000000000000     0.00000000000000
    5    -0.00000000000000    -0.00000000000000
    6     0.38952624689212    -0.78209981178391
    7     0.21826110647978    -0.31334621371027
    8    -0.01566129601862     0.00058210175731
    9     0.00000000000000    -0.00000000000000
   10    -0.00000000000000     0.00000000000000



   @DF-MCSCF  6:     -1.127199903961   -2.4609e-06  1.42e-04  8.94e-16    2    1  TS, DIIS
  ## MO-basis OPDM <0| Etu |0> (Symmetry 0) ##
  Irrep: 1 Size: 2 x 2

                 1                   2

    1     1.94776006208759     0.00000000000000
    2     0.00000000000000     0.05223993791241



  ## MO-basis TPDM (symmetrized) (Symmetry 0) ##
  Irrep: 1 Size: 4 x 4

                 1                   2                   3                   4

    1     1.94776006208759     0.00000000000000     0.00000000000000     0.00000000000000
    2     0.00000000000000    -0.15949205678633    -0.15949205678633    -0.00000000000000
    3     0.00000000000000    -0.15949205678633    -0.15949205678633    -0.00000000000000
    4     0.00000000000000    -0.00000000000000    -0.00000000000000     0.05223993791241



  ## C ACT (Symmetry 0) ##
  Irrep: 1 Size: 10 x 2

                 1                   2

    1     0.38932488183314     0.78043976809378
    2     0.21844597707994     0.31694290467338
    3     0.01567470332633     0.00025982930797
    4    -0.00000000000000     0.00000000000000
    5    -0.00000000000000    -0.00000000000000
    6     0.38932488183314    -0.78043976809378
    7     0.21844597707994    -0.31694290467338
    8    -0.01567470332633     0.00025982930797
    9     0.00000000000000    -0.00000000000000
   10    -0.00000000000000     0.00000000000000



  ## C ACT (Symmetry 0) ##
  Irrep: 1 Size: 10 x 2

                 1                   2

    1     0.38932488183314     0.78043976809378
    2     0.21844597707994     0.31694290467338
    3     0.01567470332633     0.00025982930797
    4    -0.00000000000000     0.00000000000000
    5    -0.00000000000000    -0.00000000000000
    6     0.38932488183314    -0.78043976809378
    7     0.21844597707994    -0.31694290467338
    8    -0.01567470332633     0.00025982930797
    9     0.00000000000000    -0.00000000000000
   10    -0.00000000000000     0.00000000000000



   @DF-MCSCF  7:     -1.127200091483   -1.8752e-07  3.37e-05  1.00e-16    1    1  TS, DIIS
  ## MO-basis OPDM <0| Etu |0> (Symmetry 0) ##
  Irrep: 1 Size: 2 x 2

                 1                   2

    1     1.94777420537179     0.00000000000000
    2     0.00000000000000     0.05222579462821



  ## MO-basis TPDM (symmetrized) (Symmetry 0) ##
  Irrep: 1 Size: 4 x 4

                 1                   2                   3                   4

    1     1.94777420537179     0.00000000000000     0.00000000000000     0.00000000000000
    2     0.00000000000000    -0.15947104410509    -0.15947104410509    -0.00000000000000
    3     0.00000000000000    -0.15947104410509    -0.15947104410509    -0.00000000000000
    4     0.00000000000000    -0.00000000000000    -0.00000000000000     0.05222579462821



  ## C ACT (Symmetry 0) ##
  Irrep: 1 Size: 10 x 2

                 1                   2

    1     0.38936180743233     0.78074399923330
    2     0.21841207817702     0.31628825650991
    3     0.01567224689070     0.00032105288142
    4    -0.00000000000000     0.00000000000000
    5    -0.00000000000000    -0.00000000000000
    6     0.38936180743233    -0.78074399923330
    7     0.21841207817702    -0.31628825650992
    8    -0.01567224689070     0.00032105288142
    9     0.00000000000000    -0.00000000000000
   10    -0.00000000000000     0.00000000000000



  ## C ACT (Symmetry 0) ##
  Irrep: 1 Size: 10 x 2

                 1                   2

    1     0.38936180743233     0.78074399923330
    2     0.21841207817702     0.31628825650991
    3     0.01567224689070     0.00032105288142
    4    -0.00000000000000     0.00000000000000
    5    -0.00000000000000    -0.00000000000000
    6     0.38936180743233    -0.78074399923330
    7     0.21841207817702    -0.31628825650992
    8    -0.01567224689070     0.00032105288142
    9     0.00000000000000    -0.00000000000000
   10    -0.00000000000000     0.00000000000000



   @DF-MCSCF  8:     -1.127200102620   -1.1137e-08  1.51e-06  2.22e-16    1    1  TS, DIIS

          @DF-MCSCF has converged!

   @DF-MCSCF Final Energy:   -1.127200102620008

   Computing CI Semicanonical Orbitals

   ==> Energetics <==

    SCF energy =           -1.100154720811257
    Total MCSCF energy =   -1.127200102620008

   ==> MCSCF root 0 information <==

    MCSCF Root 0 energy =    -1.127200102620008

   Active Space Natural occupation numbers:

         A   1.947774         A   0.052226

   The 4 most important determinants:

    *   1    0.986857  (    0,    0)  1AX 
    *   2   -0.161595  (    1,    1)  2AX 



Properties will be evaluated at   0.000000,   0.000000,   0.000000 [a0]

Properties computed using the CASSCF density matrix

  Nuclear Dipole Moment: [e a0]
     X:     0.0000      Y:     0.0000      Z:     0.0000

  Electronic Dipole Moment: [e a0]
     X:    -0.0000      Y:     0.0000      Z:     0.0000

  Dipole Moment: [e a0]
     X:    -0.0000      Y:     0.0000      Z:     0.0000     Total:     0.0000

  Dipole Moment: [D]
     X:    -0.0000      Y:     0.0000      Z:     0.0000     Total:     0.0000

    v2RDM-CASSCF total energy.........................................PASSED

    Psi4 stopped on: Tuesday, 28 January 2020 10:20PM
    Psi4 wall time for execution: 0:00:01.26

*** Psi4 exiting successfully. Buy a developer a beer!
