    -----------------------------------------------------------------------
          Psi4: An Open-Source Ab Initio Electronic Structure Package
                              Psi4 0.4.224 Driver

                          Git: Rev {master} e38ff50 

    J. M. Turney, A. C. Simmonett, R. M. Parrish, E. G. Hohenstein,
    F. A. Evangelista, J. T. Fermann, B. J. Mintz, L. A. Burns, J. J. Wilke,
    M. L. Abrams, N. J. Russ, M. L. Leininger, C. L. Janssen, E. T. Seidl,
    W. D. Allen, H. F. Schaefer, R. A. King, E. F. Valeev, C. D. Sherrill,
    and T. D. Crawford, WIREs Comput. Mol. Sci. 2, 556-565 (2012)
    (doi: 10.1002/wcms.93)

                         Additional Contributions by
    A. E. DePrince, U. Bozkaya, A. Yu. Sokolov, D. G. A. Smith, R. Di Remigio,
    R. M. Richard, J. F. Gonthier, H. R. McAlexander, M. Saitow, and
    B. P. Pritchard
    -----------------------------------------------------------------------


    Psi4 started on: Tue Apr  5 16:24:57 2016

    Process ID:  14927
    PSI4DATADIR: /edfs/users/edgroup/software/psi4/install/psi4-intel2016-release/share/psi4
    Memory level set to 256.000 MB

  ==> Input File <==

--------------------------------------------------------------------------
#! cc-pvdz N2 (6,6) active space Test DQG

# job description:
print '        N2 / cc-pVDZ / DQG(6,6), scf_type = CD / 1e-12, rNN = 0.5 A'

sys.path.insert(0, '../../..')
import v2rdm_casscf

molecule n2 {
0 1
n
n 1 r
}

set {
  basis cc-pvdz
  scf_type cd
  cholesky_tolerance 1e-12
  d_convergence      1e-10
  maxiter 500
  restricted_docc  [ 2, 0, 0, 0, 0, 2, 0, 0 ]
  restricted_uocc  [ 4, 1, 2, 2, 1, 4, 2, 2 ]
}
set v2rdm_casscf {
  positivity dqg
  r_convergence  1e-4
  e_convergence  1e-4
  maxiter 20000
  orbopt_frequency 200
  mu_update_frequency 200
}

activate(n2)

n2.r     = 0.5
refscf   = -103.04337420425341 # TEST
refv2rdm = -103.086370861461   # TEST

energy('v2rdm-casscf')

compare_values(refscf, get_variable("SCF TOTAL ENERGY"), 8, "SCF total energy") # TEST
compare_values(refv2rdm, get_variable("CURRENT ENERGY"), 4, "v2RDM-CASSCF total energy") # TEST

--------------------------------------------------------------------------
/edfs/users/deprince/chem/v2rdm_casscf/v2rdm_casscf.so loaded.
Setting geometry variable r to 0.500000

*** tstart() called on ed4
*** at Tue Apr  5 16:24:59 2016


         ---------------------------------------------------------
                                   SCF
            by Justin Turney, Rob Parrish, and Andy Simmonett
                              RHF Reference
                        1 Threads,    256 MiB Core
         ---------------------------------------------------------

  ==> Geometry <==

    Molecular point group: d2h
    Full point group: D_inf_h

    Geometry (in Angstrom), charge = 0, multiplicity = 1:

       Center              X                  Y                   Z               Mass       
    ------------   -----------------  -----------------  -----------------  -----------------
           N          0.000000000000     0.000000000000    -0.250000000000    14.003074004780
           N          0.000000000000     0.000000000000     0.250000000000    14.003074004780

  Running in d2h symmetry.

  Rotational constants: A = ************  B =      9.63082  C =      9.63082 [cm^-1]
  Rotational constants: A = ************  B = 288724.60708  C = 288724.60708 [MHz]
  Nuclear repulsion =   51.859366441819994

  Charge       = 0
  Multiplicity = 1
  Electrons    = 14
  Nalpha       = 7
  Nbeta        = 7

  ==> Algorithm <==

  SCF Algorithm Type is CD.
  DIIS enabled.
  MOM disabled.
  Fractional occupation disabled.
  Guess Type is CORE.
  Energy threshold   = 1.00e-08
  Density threshold  = 1.00e-10
  Integral threshold = 0.00e+00

  ==> Primary Basis <==

  Basis Set: CC-PVDZ
    Number of shells: 12
    Number of basis function: 28
    Number of Cartesian functions: 30
    Spherical Harmonics?: true
    Max angular momentum: 2

  ==> Pre-Iterations <==

   -------------------------------------------------------
    Irrep   Nso     Nmo     Nalpha   Nbeta   Ndocc  Nsocc
   -------------------------------------------------------
     Ag         7       7       0       0       0       0
     B1g        1       1       0       0       0       0
     B2g        3       3       0       0       0       0
     B3g        3       3       0       0       0       0
     Au         1       1       0       0       0       0
     B1u        7       7       0       0       0       0
     B2u        3       3       0       0       0       0
     B3u        3       3       0       0       0       0
   -------------------------------------------------------
    Total      28      28       7       7       7       0
   -------------------------------------------------------

  ==> Integral Setup <==

  ==> CDJK: Cholesky-decomposed J/K Matrices <==

    J tasked:                     Yes
    K tasked:                     Yes
    wK tasked:                     No
    OpenMP threads:                 1
    Integrals threads:              1
    Memory (MB):                  183
    Algorithm:                   Core
    Integral Cache:              SAVE
    Schwarz Cutoff:             1E-12
    Cholesky tolerance:      1.00E-12
    No. Cholesky vectors:         342

  Minimum eigenvalue in the overlap matrix is 1.5735752976E-04.
  Using Symmetric Orthogonalization.
  SCF Guess: Core (One-Electron) Hamiltonian.

  ==> Iterations <==

                        Total Energy        Delta E     RMS |[F,P]|

    Occupation by irrep:
             Ag   B1g   B2g   B3g    Au   B1u   B2u   B3u 
    DOCC [     3,    0,    0,    0,    0,    2,    1,    1 ]

   @RHF iter   1:   -88.54248632162341   -8.85425e+01   4.57822e-01 
   @RHF iter   2:   -97.65432344863311   -9.11184e+00   2.89351e-01 DIIS
   @RHF iter   3:  -103.02104353617844   -5.36672e+00   2.16155e-02 DIIS
   @RHF iter   4:  -103.04290174334818   -2.18582e-02   2.90864e-03 DIIS
   @RHF iter   5:  -103.04336662616791   -4.64883e-04   3.30426e-04 DIIS
   @RHF iter   6:  -103.04337393110870   -7.30494e-06   4.64105e-05 DIIS
   @RHF iter   7:  -103.04337419566048   -2.64552e-07   1.10338e-05 DIIS
   @RHF iter   8:  -103.04337420419273   -8.53225e-09   8.62477e-07 DIIS
   @RHF iter   9:  -103.04337420425298   -6.02540e-11   7.21357e-08 DIIS
   @RHF iter  10:  -103.04337420425344   -4.54747e-13   2.10813e-09 DIIS
   @RHF iter  11:  -103.04337420425347   -2.84217e-14   4.13689e-10 DIIS
   @RHF iter  12:  -103.04337420425350   -2.84217e-14   2.77994e-11 DIIS

  ==> Post-Iterations <==

    Orbital Energies (a.u.)
    -----------------------

    Doubly Occupied:                                                      

       1Ag   -16.484161     1B1u  -15.785893     2Ag    -1.444309  
       1B2u   -1.176599     1B3u   -1.176599     2B1u   -0.543616  
       3Ag    -0.524272  

    Virtual:                                                              

       1B2g    0.538181     1B3g    0.538181     2B2u    0.594641  
       2B3u    0.594641     3B1u    0.614128     4Ag     0.726476  
       5Ag     1.055370     2B2g    1.450590     2B3g    1.450590  
       6Ag     1.682008     1B1g    1.682008     4B1u    1.789550  
       3B2u    2.801107     3B3u    2.801107     5B1u    2.816412  
       6B1u    2.841104     1Au     2.841104     7Ag     3.148621  
       3B2g    4.716074     3B3g    4.716074     7B1u   13.525785  

    Final Occupation by Irrep:
             Ag   B1g   B2g   B3g    Au   B1u   B2u   B3u 
    DOCC [     3,    0,    0,    0,    0,    2,    1,    1 ]

  Energy converged.

  @RHF Final Energy:  -103.04337420425350

   => Energetics <=

    Nuclear Repulsion Energy =             51.8593664418199936
    One-Electron Energy =                -235.5345802006837346
    Two-Electron Energy =                  80.6318395546102806
    DFT Exchange-Correlation Energy =       0.0000000000000000
    Empirical Dispersion Energy =           0.0000000000000000
    PCM Polarization Energy =               0.0000000000000000
    EFP Energy =                            0.0000000000000000
    Total Energy =                       -103.0433742042534675

    Alert: EFP and PCM quantities not currently incorporated into SCF psivars.

Properties will be evaluated at   0.000000,   0.000000,   0.000000 Bohr
  ==> Properties <==


Properties computed using the SCF density matrix

  Nuclear Dipole Moment: (a.u.)
     X:     0.0000      Y:     0.0000      Z:     0.0000

  Electronic Dipole Moment: (a.u.)
     X:     0.0000      Y:     0.0000      Z:     0.0000

  Dipole Moment: (a.u.)
     X:     0.0000      Y:     0.0000      Z:     0.0000     Total:     0.0000

  Dipole Moment: (Debye)
     X:     0.0000      Y:     0.0000      Z:     0.0000     Total:     0.0000


  Saving occupied orbitals to File 180.

*** tstop() called on ed4 at Tue Apr  5 16:25:00 2016
Module time:
	user time   =       0.49 seconds =       0.01 minutes
	system time =       0.02 seconds =       0.00 minutes
	total time  =          1 seconds =       0.02 minutes
Total time:
	user time   =       0.49 seconds =       0.01 minutes
	system time =       0.02 seconds =       0.00 minutes
	total time  =          1 seconds =       0.02 minutes

Reading options from the V2RDM_CASSCF block
Calling plugin v2rdm_casscf.so.



*** tstart() called on ed4
*** at Tue Apr  5 16:25:00 2016



        ****************************************************
        *                                                  *
        *    v2RDM-CASSCF                                  *
        *                                                  *
        *    A variational 2-RDM-driven approach to the    *
        *    active space self-consistent field method     *
        *                                                  *
        ****************************************************


        The following papers should be cited when using v2RDM-CASSCF:

        J. Fosso-Tande, D. R. Nascimento, and A. E. DePrince III,
        Mol. Phys. 114, 423-430 (2015).

            URL: http://dx.doi.org/10.1080/00268976.2015.1078008

        J. Fosso-Tande, T.-S. Nguyen, G. Gidofalvi, and
        A. E. DePrince III, submitted (2016).


  ==> Convergence parameters <==

        r_convergence:                      1.000e-04
        e_convergence:                      1.000e-04
        cg_convergence:                     1.000e-05
        maxiter:                                20000
        cg_maxiter:                             10000

  ==> Active space details <==

        Number of frozen core orbitals:             0
        Number of restricted occupied orbitals:     4
        Number of active occupied orbitals:         3
        Number of active virtual orbitals:          3
        Number of restricted virtual orbitals:     18
        Number of frozen virtual orbitals:          0

        Irrep:             Ag, B1g, B2g, B3g,  Au, B1u, B2u, B3u 
 
        frozen_docc     [   0,   0,   0,   0,   0,   0,   0,   0 ]
        restricted_docc [   2,   0,   0,   0,   0,   2,   0,   0 ]
        active          [   1,   0,   1,   1,   0,   1,   1,   1 ]
        restricted_uocc [   4,   1,   2,   2,   1,   4,   2,   2 ]
        frozen_uocc     [   0,   0,   0,   0,   0,   0,   0,   0 ]

  ==> Orbital optimization parameters <==

        1-step algorithm:                       1
        g_convergence:                  1.000e-04
        e_convergence:                  1.000e-08
        maximum iterations:                    20
        frequency:                            200
        active-active rotations:                0
        exact diagonal Hessian:                 0
        number of DIIS vectors:                 0
        print iteration info:                   0

  ==> Memory requirements <==

        D2:                          0.00 mb
        Q2:                          0.00 mb
        G2:                          0.01 mb

        Total number of variables:           1500
        Total number of constraints:         1282
        Total memory requirements:        1.15 mb

    ==> Transform three-electron integrals <==


        Time for integral transformation:     0.09 s

    Molecular point group: d2h
    Full point group: D_inf_h

    Geometry (in Angstrom), charge = 0, multiplicity = 1:

       Center              X                  Y                   Z               Mass       
    ------------   -----------------  -----------------  -----------------  -----------------
           N          0.000000000000     0.000000000000    -0.250000000000    14.003074004780
           N          0.000000000000     0.000000000000     0.250000000000    14.003074004780

  -AO BASIS SET INFORMATION:
    Name                   = CC-PVDZ
    Total number of shells = 12
    Number of primitives   = 44
    Number of AO           = 30
    Number of SO           = 28
    Maximum AM             = 2
    Spherical Harmonics    = TRUE

  -Contraction Scheme:
    Atom   Type   All Primitives // Shells:
   ------ ------ --------------------------
       1     N     17s 4p 1d // 3s 2p 1d 
       2     N     17s 4p 1d // 3s 2p 1d 

  ==> AO Basis Functions <==

    [ CC-PVDZ ]
    spherical
    ****
    N   1
    S   8 1.00
                      9046.00000000           0.00070000
                      1357.00000000           0.00538900
                       309.30000000           0.02740600
                        87.73000000           0.10320700
                        28.56000000           0.27872300
                        10.21000000           0.44854000
                         3.83800000           0.27823800
                         0.74660000           0.01544000
    S   8 1.00
                      9046.00000000          -0.00015300
                      1357.00000000          -0.00120800
                       309.30000000          -0.00599200
                        87.73000000          -0.02454400
                        28.56000000          -0.06745900
                        10.21000000          -0.15807800
                         3.83800000          -0.12183100
                         0.74660000           0.54900300
    S   1 1.00
                         0.22480000           1.00000000
    P   3 1.00
                        13.55000000           0.03991900
                         2.91700000           0.21716900
                         0.79730000           0.51031900
    P   1 1.00
                         0.21850000           1.00000000
    D   1 1.00
                         0.81700000           1.00000000
    ****


    reference energy:        -103.043374204253
    frozen core energy:      -138.046901361522
    initial 2-RDM energy:     -73.010112079847

      oiter iiter        E(p)        E(d)      E gap)      mu     eps(p)     eps(d)
          0    65 -104.254879   91.395799  195.650678   1.000   66.13241   48.95461
          1    41  -85.702002 -303.511746  217.809744   1.000   10.40704   29.95383
          2    42 -108.647871 -152.605746   43.957875   1.000   13.86119    8.72153
          3    39 -100.877809 -136.688259   35.810450   1.000   10.84959    3.47440
          4    40 -103.449579 -120.677666   17.228087   1.000    8.65288    2.55819
          5    38  -99.470790 -109.958137   10.487347   1.000    4.57455    2.35291
          6    41 -100.859917 -104.951404    4.091487   1.000    3.98023    1.73645
          7    38  -99.620285  -99.363112    0.257174   1.000    2.26442    1.61581
          8    38 -100.314153  -96.974000    3.340152   1.000    1.18889    2.05123
          9    41 -100.580929  -99.038218    1.542711   1.000    0.69729    1.36963
         10    39 -101.005317  -99.336489    1.668828   1.000    0.43904    0.87670
         11    37 -101.099915 -100.019426    1.080488   1.000    0.25698    0.65165
         12    33 -101.291483  -99.999697    1.291786   1.000    0.17237    0.54109
         13    40 -101.430694 -100.009799    1.420895   1.000    0.13007    0.47174
         14    33 -101.639288  -99.928086    1.711202   1.000    0.13092    0.42975
         15    39 -101.782783 -100.171581    1.611202   1.000    0.16059    0.39560
         16    41 -101.909878 -100.394663    1.515215   1.000    0.16191    0.37343
         17    41 -102.005016 -100.572544    1.432472   1.000    0.16673    0.35669
         18    40 -102.106843 -100.653223    1.453620   1.000    0.17360    0.34146
         19    40 -102.200548 -100.742997    1.457551   1.000    0.17689    0.32978
         20    38 -102.291675 -100.858909    1.432766   1.000    0.17319    0.31925
         21    38 -102.374982 -101.003949    1.371033   1.000    0.15860    0.31134
         22    38 -102.454783 -101.102268    1.352515   1.000    0.14180    0.30197
         23    33 -102.523908 -101.188137    1.335771   1.000    0.14949    0.28557
         24    35 -102.571120 -101.340211    1.230909   1.000    0.20324    0.25064
         25    38 -102.613681 -101.722460    0.891221   1.000    0.23285    0.19793
         26    40 -102.642630 -102.152601    0.490030   1.000    0.20853    0.17688
         27    38 -102.656004 -102.478779    0.177225   1.000    0.14504    0.17983
         28    37 -102.659766 -102.588917    0.070849   1.000    0.09560    0.18070
         29    39 -102.668429 -102.536375    0.132054   1.000    0.08970    0.17193
         30    38 -102.683258 -102.367564    0.315694   1.000    0.10600    0.16011
         31    38 -102.708380 -102.164203    0.544177   1.000    0.10804    0.15243
         32    38 -102.737904 -102.002207    0.735697   1.000    0.09006    0.15081
         33    32 -102.768570 -101.927104    0.841466   1.000    0.06416    0.15120
         34    38 -102.795183 -101.931744    0.863439   1.000    0.04907    0.15025
         35    40 -102.818054 -102.001725    0.816329   1.000    0.05175    0.14742
         36    39 -102.834644 -102.097113    0.737531   1.000    0.07588    0.14124
         37    37 -102.846465 -102.261403    0.585062   1.000    0.09652    0.13345
         38    35 -102.851183 -102.415649    0.435534   1.000    0.08079    0.12998
         39    38 -102.856306 -102.455664    0.400642   1.000    0.05645    0.12900
         40    41 -102.867293 -102.394154    0.473139   1.000    0.04717    0.12754
         41    41 -102.884845 -102.301548    0.583297   1.000    0.04205    0.12708
         42    35 -102.907362 -102.231326    0.676036   1.000    0.03212    0.12738
         43    34 -102.930787 -102.209751    0.721036   1.000    0.02448    0.12678
         44    40 -102.951244 -102.231071    0.720173   1.000    0.02469    0.12540
         45    41 -102.968061 -102.270912    0.697149   1.000    0.02511    0.12453
         46    41 -102.981232 -102.303907    0.677325   1.000    0.02161    0.12459
         47    35 -102.992919 -102.314022    0.678897   1.000    0.01707    0.12494
         48    33 -103.005071 -102.303220    0.701851   1.000    0.01491    0.12496
         49    38 -103.018451 -102.281504    0.736946   1.000    0.01541    0.12467
         50    40 -103.033660 -102.262260    0.771401   1.000    0.01664    0.12431
         51    39 -103.048162 -102.255340    0.792822   1.000    0.02213    0.12175
         52    35 -103.064409 -102.296440    0.767969   1.000    0.11906    0.09529
         53    41 -103.102303 -102.695569    0.406735   1.000    0.15643    0.03679
         54    47 -103.097572 -103.188541    0.090969   1.000    0.13241    0.03881
         55    42 -103.077278 -103.504866    0.427588   1.000    0.07222    0.05561
         56    38 -103.050682 -103.579974    0.529291   1.000    0.02656    0.05344
         57    42 -103.028870 -103.446948    0.418078   1.000    0.06055    0.04046
         58    41 -103.018545 -103.200468    0.181923   1.000    0.07903    0.02165
         59    42 -103.022464 -102.955975    0.066488   1.000    0.06694    0.01340
         60    46 -103.035578 -102.802175    0.233403   1.000    0.03491    0.02479
         61    32 -103.051267 -102.776660    0.274607   1.000    0.01468    0.02761
         62    40 -103.061654 -102.853827    0.207827   1.000    0.03505    0.02041
         63    41 -103.065520 -102.982317    0.083203   1.000    0.04377    0.00755
         64    47 -103.062459 -103.106556    0.044097   1.000    0.03621    0.00638
         65    46 -103.055113 -103.181828    0.126715   1.000    0.01992    0.01351
         66    32 -103.047433 -103.191407    0.143974   1.000    0.01212    0.01434
         67    39 -103.042326 -103.147749    0.105423   1.000    0.02032    0.01007
         68    40 -103.040904 -103.078317    0.037414   1.000    0.02359    0.00401
         69    42 -103.042934 -103.014379    0.028555   1.000    0.01942    0.00441
         70    41 -103.046728 -102.977722    0.069006   1.000    0.01247    0.00758
         71    35 -103.050684 -102.976167    0.074516   1.000    0.01112    0.00766
         72    41 -103.052990 -103.000929    0.052061   1.000    0.01445    0.00542
         73    41 -103.053647 -103.037055    0.016591   1.000    0.01550    0.00270
         74    47 -103.052608 -103.069508    0.016901   1.000    0.01335    0.00310
         75    42 -103.050619 -103.087115    0.036497   1.000    0.01032    0.00450
         76    35 -103.048256 -103.089187    0.040931   1.000    0.00962    0.00458
         77    40 -103.046819 -103.076516    0.029697   1.000    0.01074    0.00347
         78    41 -103.046368 -103.057312    0.010943   1.000    0.01121    0.00222
         79    41 -103.046832 -103.039645    0.007186   1.000    0.01039    0.00217
         80    42 -103.047806 -103.028965    0.018841   1.000    0.00911    0.00274
         81    38 -103.048469 -103.027311    0.021158   1.000    0.00872    0.00291
         82    42 -103.049630 -103.034164    0.015466   1.000    0.00901    0.00231
         83    47 -103.049736 -103.044335    0.005401   1.000    0.00915    0.00179
         84    47 -103.049672 -103.053595    0.003923   1.000    0.00866    0.00172
         85    48 -103.048935 -103.059439    0.010504   1.000    0.00818    0.00189
         86    37 -103.048249 -103.060446    0.012197   1.000    0.00790    0.00192
         87    41 -103.047635 -103.057641    0.010006   1.000    0.00784    0.00171
         88    41 -103.047419 -103.052518    0.005098   1.000    0.00780    0.00158
         89    41 -103.047551 -103.047788    0.000237   1.000    0.00771    0.00138
         90    41 -103.047778 -103.044149    0.003629   1.000    0.00753    0.00138
         91    40 -103.048160 -103.042475    0.005685   1.000    0.00741    0.00140
         92    41 -103.048507 -103.042974    0.005533   1.000    0.00734    0.00134
         93    41 -103.049548 -103.045156    0.004392   1.000    0.00703    0.00129
         94    42 -103.049413 -103.048520    0.000893   1.000    0.00677    0.00118
         95    41 -103.049853 -103.050896    0.001043   1.000    0.00650    0.00116
         96    41 -103.049418 -103.052501    0.003083   1.000    0.00638    0.00116
         97    41 -103.049447 -103.052285    0.002838   1.000    0.00627    0.00112
         98    41 -103.049730 -103.051111    0.001381   1.000    0.00589    0.00108
         99    42 -103.049891 -103.049536    0.000355   1.000    0.00581    0.00100
        100    42 -103.049773 -103.047938    0.001835   1.000    0.00576    0.00096
        101    42 -103.049976 -103.046640    0.003335   1.000    0.00562    0.00095
        102    42 -103.050679 -103.046235    0.004444   1.000    0.00536    0.00104
        103    42 -103.050295 -103.047085    0.003209   1.000    0.00531    0.00097
        104    42 -103.050589 -103.047969    0.002621   1.000    0.00523    0.00091
        105    42 -103.050424 -103.049324    0.001100   1.000    0.00516    0.00087
        106    42 -103.050470 -103.049982    0.000488   1.000    0.00505    0.00087
        107    43 -103.050372 -103.050148    0.000224   1.000    0.00497    0.00091
        108    43 -103.050391 -103.049822    0.000569   1.000    0.00490    0.00085
        109    47 -103.050379 -103.049300    0.001080   1.000    0.00485    0.00080
        110    47 -103.050392 -103.048723    0.001670   1.000    0.00477    0.00089
        111    47 -103.050369 -103.048502    0.001866   1.000    0.00471    0.00081
        112    47 -103.050400 -103.048298    0.002103   1.000    0.00464    0.00073
        113    47 -103.050347 -103.048085    0.002263   1.000    0.00462    0.00070
        114    47 -103.050339 -103.047763    0.002576   1.000    0.00452    0.00103
        115    41 -103.050296 -103.049054    0.001242   1.000    0.00446    0.00091
        116    46 -103.050307 -103.049125    0.001182   1.000    0.00435    0.00079
        117    47 -103.050288 -103.049856    0.000432   1.000    0.00424    0.00085
        118    47 -103.050253 -103.050218    0.000035   1.000    0.00419    0.00076
        119    47 -103.050222 -103.050330    0.000108   1.000    0.00420    0.00068
        120    49 -103.050197 -103.049871    0.000326   1.000    0.00424    0.00060
        121    53 -103.050167 -103.049020    0.001147   1.000    0.00427    0.00056
        122    54 -103.050151 -103.047937    0.002213   1.000    0.00426    0.00055
        123    53 -103.050128 -103.046916    0.003212   1.000    0.00421    0.00056
        124    54 -103.050127 -103.046190    0.003937   1.000    0.00414    0.00056
        125    49 -103.050128 -103.045944    0.004184   1.000    0.00408    0.00064
        126    47 -103.050130 -103.046334    0.003796   1.000    0.00400    0.00065
        127    42 -103.049946 -103.047483    0.002463   1.000    0.00402    0.00061
        128    47 -103.050036 -103.048301    0.001735   1.000    0.00397    0.00052
        129    47 -103.049943 -103.049212    0.000731   1.000    0.00395    0.00051
        130    47 -103.049963 -103.049512    0.000452   1.000    0.00393    0.00051
        131    49 -103.049904 -103.049597    0.000307   1.000    0.00393    0.00050
        132    48 -103.049807 -103.049281    0.000527   1.000    0.00392    0.00053
        133    47 -103.049764 -103.048884    0.000879   1.000    0.00392    0.00048
        134    54 -103.049571 -103.048325    0.001246   1.000    0.00399    0.00057
        135    47 -103.050014 -103.048015    0.001998   1.000    0.00386    0.00052
        136    54 -103.049727 -103.047891    0.001837   1.000    0.00384    0.00046
        137    54 -103.049841 -103.047377    0.002464   1.000    0.00366    0.00046
        138    53 -103.049997 -103.047365    0.002633   1.000    0.00355    0.00049
        139    47 -103.049885 -103.047643    0.002242   1.000    0.00351    0.00043
        140    54 -103.049948 -103.047656    0.002292   1.000    0.00351    0.00041
        141    54 -103.049900 -103.047820    0.002080   1.000    0.00350    0.00040
        142    54 -103.049913 -103.047805    0.002107   1.000    0.00348    0.00039
        143    53 -103.049884 -103.047863    0.002021   1.000    0.00346    0.00039
        144    53 -103.049877 -103.047901    0.001976   1.000    0.00345    0.00038
        145    52 -103.049858 -103.047976    0.001882   1.000    0.00343    0.00038
        146    52 -103.049786 -103.048030    0.001755   1.000    0.00328    0.00048
        147    47 -103.049797 -103.048360    0.001437   1.000    0.00324    0.00052
        148    48 -103.049718 -103.048844    0.000874   1.000    0.00316    0.00051
        149    46 -103.049688 -103.048747    0.000941   1.000    0.00314    0.00043
        150    53 -103.049662 -103.048752    0.000910   1.000    0.00312    0.00038
        151    53 -103.049658 -103.048380    0.001278   1.000    0.00312    0.00036
        152    51 -103.049567 -103.048012    0.001555   1.000    0.00315    0.00038
        153    53 -103.049580 -103.047735    0.001845   1.000    0.00314    0.00038
        154    53 -103.049561 -103.047574    0.001987   1.000    0.00314    0.00042
        155    53 -103.049603 -103.047650    0.001953   1.000    0.00311    0.00036
        156    54 -103.049578 -103.047757    0.001821   1.000    0.00308    0.00034
        157    53 -103.049576 -103.047831    0.001745   1.000    0.00303    0.00050
        158    53 -103.049619 -103.048210    0.001409   1.000    0.00301    0.00047
        159    47 -103.049628 -103.048658    0.000971   1.000    0.00304    0.00044
        160    47 -103.049622 -103.048928    0.000694   1.000    0.00306    0.00037
        161    47 -103.049581 -103.048912    0.000670   1.000    0.00307    0.00034
        162    53 -103.049557 -103.048636    0.000921   1.000    0.00307    0.00032
        163    53 -103.049531 -103.048251    0.001280   1.000    0.00305    0.00050
        164    46 -103.049500 -103.048019    0.001481   1.000    0.00303    0.00038
        165    47 -103.049500 -103.047790    0.001711   1.000    0.00302    0.00031
        166    54 -103.049491 -103.047568    0.001923   1.000    0.00301    0.00029
        167    53 -103.049490 -103.047302    0.002188   1.000    0.00299    0.00040
        168    47 -103.049480 -103.047274    0.002206   1.000    0.00286    0.00032
        169    53 -103.049414 -103.047309    0.002105   1.000    0.00275    0.00040
        170    47 -103.049448 -103.047618    0.001830   1.000    0.00276    0.00032
        171    47 -103.049427 -103.047926    0.001500   1.000    0.00272    0.00043
        172    48 -103.049463 -103.048396    0.001067   1.000    0.00274    0.00033
        173    49 -103.049433 -103.048630    0.000803   1.000    0.00274    0.00053
        174    41 -103.049426 -103.048964    0.000462   1.000    0.00276    0.00040
        175    47 -103.049396 -103.049107    0.000289   1.000    0.00274    0.00055
        176    42 -103.049414 -103.049536    0.000121   1.000    0.00277    0.00045
        177    46 -103.049378 -103.049592    0.000214   1.000    0.00281    0.00035
        178    48 -103.049299 -103.049339    0.000040   1.000    0.00269    0.00034
        179    52 -103.049212 -103.048852    0.000361   1.000    0.00260    0.00033
        180    49 -103.049210 -103.048332    0.000879   1.000    0.00262    0.00026
        181    53 -103.049187 -103.047716    0.001471   1.000    0.00259    0.00022
        182    53 -103.049206 -103.047173    0.002033   1.000    0.00260    0.00021
        183    55 -103.049205 -103.046709    0.002496   1.000    0.00257    0.00023
        184    53 -103.049225 -103.046387    0.002838   1.000    0.00254    0.00024
        185    49 -103.049229 -103.046228    0.003001   1.000    0.00250    0.00025
        186    49 -103.049237 -103.046230    0.003007   1.000    0.00246    0.00025
        187    48 -103.049237 -103.046393    0.002844   1.000    0.00242    0.00024
        188    49 -103.049236 -103.046675    0.002561   1.000    0.00239    0.00022
        189    49 -103.049233 -103.047038    0.002195   1.000    0.00238    0.00020
        190    49 -103.049228 -103.047425    0.001803   1.000    0.00237    0.00019
        191    49 -103.049220 -103.047791    0.001429   1.000    0.00237    0.00020
        192    49 -103.049210 -103.048095    0.001115   1.000    0.00238    0.00020
        193    53 -103.049196 -103.048305    0.000891   1.000    0.00239    0.00021
        194    48 -103.049183 -103.048417    0.000766   1.000    0.00240    0.00022
        195    53 -103.049167 -103.048401    0.000766   1.000    0.00242    0.00021
        196    53 -103.049152 -103.048295    0.000857   1.000    0.00243    0.00021
        197    53 -103.049140 -103.048091    0.001049   1.000    0.00244    0.00019
        198    53 -103.049130 -103.047835    0.001295   1.000    0.00245    0.00018
        199    53 -103.049122 -103.047551    0.001571   1.000    0.00244    0.00018

        ==> Orbital Optimization <==

            Orbital Optimization did not converge in  20 iterations 
            Total energy change: -2.741279e-02
            Final gradient norm: 8.023228e-04

        200    53 -103.076531 -101.626555    1.449976  13.840    0.00243    0.00018
        201    92 -103.090983 -100.148586    2.942396  13.840    0.03200    0.40531
        202    61 -103.101787 -101.583624    1.518163  13.840    0.03943    0.27768
        203    59 -103.101940 -103.287813    0.185874  13.840    0.03678    0.20342
        204    54 -103.097612 -104.539949    1.442337  13.840    0.02297    0.24170
        205    54 -103.090775 -104.987691    1.896917  13.840    0.00954    0.24805
        206    61 -103.085827 -104.640415    1.554588  13.840    0.01541    0.21489
        207    61 -103.084640 -103.806597    0.721957  13.840    0.02167    0.16104
        208    59 -103.087338 -102.901374    0.185964  13.840    0.02036    0.13404
        209    49 -103.089057 -102.359113    0.729945  13.840    0.01333    0.15221
        210    56 -103.099905 -102.439753    0.660152  13.840    0.00934    0.13529
        211    61 -103.098060 -102.705699    0.392361  13.840    0.01151    0.11118
        212    56 -103.102744 -102.993863    0.108881  13.840    0.01124    0.09285
        213    51 -103.101756 -103.272095    0.170339  13.840    0.01097    0.08035
        214    54 -103.102520 -103.448451    0.345931  13.840    0.00941    0.07811
        215    49 -103.100869 -103.555659    0.454790  13.840    0.00896    0.07898
        216    42 -103.101152 -103.580020    0.478869  13.840    0.00833    0.08262
        217    53 -103.101526 -103.599187    0.497660  13.840    0.00805    0.08629
        218    56 -103.096935 -103.618091    0.521156  13.840    0.00608    0.09263
        219    55 -103.095676 -103.665424    0.569748  13.840    0.00501    0.09528
        220    53 -103.093022 -103.723326    0.630303  13.840    0.00497    0.09089
        221    53 -103.091160 -103.684262    0.593102  13.840    0.00587    0.08545
        222    54 -103.089256 -103.618227    0.528971  13.840    0.00646    0.08516
        223    54 -103.087544 -103.545450    0.457906  13.840    0.00689    0.07509
        224    55 -103.085710 -103.446903    0.361193  13.840    0.00697    0.06414
        225    56 -103.084918 -103.348765    0.263847  13.840    0.00730    0.05297
        226    55 -103.084257 -103.247675    0.163418  13.840    0.00679    0.04511
        227    55 -103.084511 -103.152755    0.068244  13.840    0.00672    0.04063
        228    54 -103.085188 -103.047439    0.037750  13.840    0.00653    0.04102
        229    56 -103.086301 -102.947544    0.138757  13.840    0.00614    0.04437
        230    49 -103.087546 -102.863625    0.223920  13.840    0.00537    0.04851
        231    54 -103.088903 -102.805782    0.283120  13.840    0.00434    0.05190
        232    48 -103.090276 -102.780332    0.309944  13.840    0.00335    0.05327
        233    47 -103.091667 -102.785773    0.305894  13.840    0.00281    0.05205
        234    53 -103.092852 -102.816413    0.276439  13.840    0.00270    0.04861
        235    54 -103.093796 -102.867635    0.226161  13.840    0.00305    0.04337
        236    56 -103.094777 -102.928372    0.166405  13.840    0.00335    0.03673
        237    53 -103.095222 -102.988526    0.106696  13.840    0.00368    0.03060
        238    54 -103.095566 -103.055719    0.039847  13.840    0.00369    0.02410
        239    53 -103.095374 -103.114321    0.018947  13.840    0.00372    0.02118
        240    53 -103.094857 -103.175388    0.080532  13.840    0.00357    0.02240
        241    53 -103.094083 -103.229936    0.135853  13.840    0.00344    0.02591
        242    52 -103.093262 -103.277411    0.184149  13.840    0.00307    0.03010
        243    52 -103.092314 -103.311853    0.219539  13.840    0.00280    0.03376
        244    53 -103.091458 -103.334325    0.242867  13.840    0.00262    0.03569
        245    53 -103.090383 -103.337660    0.247277  13.840    0.00248    0.03673
        246    42 -103.089411 -103.337418    0.248007  13.840    0.00263    0.03505
        247    54 -103.088569 -103.315403    0.226834  13.840    0.00296    0.03392
        248    54 -103.087915 -103.286234    0.198319  13.840    0.00342    0.02970
        249    54 -103.087361 -103.239030    0.151669  13.840    0.00372    0.02478
        250    54 -103.087012 -103.192819    0.105807  13.840    0.00391    0.01945
        251    54 -103.086840 -103.142302    0.055462  13.840    0.00395    0.01507
        252    54 -103.086644 -103.093595    0.006951  13.840    0.00358    0.01375
        253    56 -103.086558 -103.050102    0.036456  13.840    0.00316    0.01481
        254    53 -103.086892 -103.013888    0.073005  13.840    0.00293    0.01690
        255    54 -103.087334 -102.982514    0.104820  13.840    0.00267    0.01974
        256    54 -103.087924 -102.960715    0.127209  13.840    0.00242    0.02307
        257    54 -103.088636 -102.952213    0.136423  13.840    0.00226    0.02412
        258    54 -103.089261 -102.952298    0.136963  13.840    0.00212    0.02397
        259    53 -103.089975 -102.964296    0.125679  13.840    0.00206    0.02206
        260    53 -103.090464 -102.974298    0.116166  13.840    0.00205    0.01953
        261    53 -103.090835 -102.990127    0.100708  13.840    0.00209    0.01676
        262    51 -103.091074 -103.010021    0.081052  13.840    0.00216    0.01396
        263    46 -103.091234 -103.037698    0.053537  13.840    0.00223    0.01091
        264    46 -103.091291 -103.066986    0.024305  13.840    0.00226    0.00939
        265    46 -103.091235 -103.098993    0.007759  13.840    0.00221    0.00915
        266    42 -103.091052 -103.126903    0.035851  13.840    0.00214    0.01041
        267    53 -103.090757 -103.151718    0.060960  13.840    0.00204    0.01379
        268    53 -103.090347 -103.174468    0.084121  13.840    0.00195    0.01506
        269    53 -103.089962 -103.188672    0.098709  13.840    0.00196    0.01605
        270    54 -103.089416 -103.195459    0.106043  13.840    0.00200    0.01667
        271    53 -103.088825 -103.195943    0.107118  13.840    0.00205    0.01684
        272    53 -103.087788 -103.191768    0.103980  13.840    0.00209    0.01747
        273    55 -103.087585 -103.188859    0.101274  13.840    0.00198    0.01638
        274    52 -103.086956 -103.174565    0.087609  13.840    0.00203    0.01499
        275    54 -103.086683 -103.162657    0.075974  13.840    0.00200    0.01311
        276    54 -103.086322 -103.144573    0.058251  13.840    0.00202    0.01101
        277    54 -103.086144 -103.126785    0.040641  13.840    0.00203    0.00872
        278    54 -103.086006 -103.105466    0.019460  13.840    0.00203    0.00733
        279    54 -103.085985 -103.086209    0.000224  13.840    0.00203    0.00693
        280    54 -103.086022 -103.067423    0.018599  13.840    0.00204    0.00734
        281    54 -103.086161 -103.048972    0.037189  13.840    0.00202    0.00847
        282    54 -103.086375 -103.031985    0.054390  13.840    0.00199    0.01015
        283    54 -103.086633 -103.019668    0.066965  13.840    0.00198    0.01124
        284    54 -103.086950 -103.008699    0.078251  13.840    0.00194    0.01202
        285    54 -103.087297 -103.002938    0.084359  13.840    0.00190    0.01272
        286    54 -103.087632 -103.002641    0.084991  13.840    0.00183    0.01242
        287    54 -103.087980 -103.005242    0.082738  13.840    0.00180    0.01188
        288    54 -103.088303 -103.011359    0.076945  13.840    0.00179    0.01101
        289    54 -103.088594 -103.020461    0.068133  13.840    0.00180    0.01022
        290    56 -103.088808 -103.034125    0.054684  13.840    0.00178    0.00873
        291    54 -103.088983 -103.047408    0.041576  13.840    0.00179    0.00735
        292    56 -103.089071 -103.062560    0.026511  13.840    0.00179    0.00629
        293    54 -103.089092 -103.077393    0.011699  13.840    0.00180    0.00581
        294    54 -103.088965 -103.092233    0.003268  13.840    0.00178    0.00613
        295    54 -103.088796 -103.106242    0.017446  13.840    0.00177    0.00685
        296    53 -103.088607 -103.118570    0.029963  13.840    0.00176    0.00773
        297    54 -103.088365 -103.127931    0.039566  13.840    0.00176    0.00893
        298    58 -103.088124 -103.136287    0.048163  13.840    0.00180    0.00945
        299    59 -103.087851 -103.141366    0.053515  13.840    0.00186    0.00978
        300    56 -103.087562 -103.142648    0.055086  13.840    0.00191    0.00983
        301    54 -103.087273 -103.140270    0.052996  13.840    0.00197    0.00951
        302    54 -103.087011 -103.134904    0.047892  13.840    0.00201    0.00891
        303    54 -103.086778 -103.127434    0.040656  13.840    0.00203    0.00829
        304    54 -103.086569 -103.119487    0.032918  13.840    0.00201    0.00736
        305    54 -103.086391 -103.109788    0.023396  13.840    0.00200    0.00624
        306    54 -103.086268 -103.099202    0.012934  13.840    0.00199    0.00540
        307    54 -103.086200 -103.087594    0.001394  13.840    0.00198    0.00487
        308    53 -103.086189 -103.076145    0.010044  13.840    0.00195    0.00476
        309    54 -103.086228 -103.065192    0.021037  13.840    0.00192    0.00509
        310    53 -103.086320 -103.055524    0.030796  13.840    0.00189    0.00572
        311    54 -103.086451 -103.047880    0.038572  13.840    0.00187    0.00635
        312    54 -103.086619 -103.042059    0.044560  13.840    0.00186    0.00690
        313    53 -103.086813 -103.037826    0.048988  13.840    0.00186    0.00728
        314    53 -103.087021 -103.035810    0.051211  13.840    0.00186    0.00746
        315    54 -103.087227 -103.035763    0.051464  13.840    0.00185    0.00741
        316    54 -103.087425 -103.037804    0.049621  13.840    0.00185    0.00717
        317    52 -103.087568 -103.041690    0.045878  13.840    0.00180    0.00679
        318    53 -103.087586 -103.047575    0.040011  13.840    0.00165    0.00695
        319    53 -103.087703 -103.057842    0.029861  13.840    0.00166    0.00665
        320    53 -103.087651 -103.066852    0.020799  13.840    0.00161    0.00635
        321    53 -103.087619 -103.074895    0.012724  13.840    0.00161    0.00623
        322    54 -103.087446 -103.082385    0.005061  13.840    0.00150    0.00619
        323    53 -103.087206 -103.089279    0.002073  13.840    0.00141    0.00623
        324    53 -103.087078 -103.095707    0.008629  13.840    0.00143    0.00589
        325    53 -103.086854 -103.099177    0.012323  13.840    0.00139    0.00576
        326    53 -103.086706 -103.103236    0.016531  13.840    0.00138    0.00581
        327    54 -103.086546 -103.105955    0.019409  13.840    0.00134    0.00586
        328    54 -103.086424 -103.107778    0.021354  13.840    0.00130    0.00576
        329    54 -103.086303 -103.108036    0.021733  13.840    0.00126    0.00660
        330    54 -103.086212 -103.110203    0.023991  13.840    0.00123    0.00666
        331    52 -103.086119 -103.108685    0.022566  13.840    0.00120    0.00690
        332    54 -103.086042 -103.108186    0.022144  13.840    0.00117    0.00712
        333    53 -103.085968 -103.106801    0.020833  13.840    0.00113    0.00749
        334    54 -103.085884 -103.107674    0.021789  13.840    0.00112    0.00713
        335    53 -103.085798 -103.107481    0.021682  13.840    0.00111    0.00733
        336    56 -103.085698 -103.108644    0.022947  13.840    0.00108    0.00717
        337    53 -103.085581 -103.108460    0.022879  13.840    0.00106    0.00733
        338    54 -103.085444 -103.110488    0.025044  13.840    0.00105    0.00769
        339    54 -103.085291 -103.111051    0.025759  13.840    0.00107    0.00752
        340    54 -103.085103 -103.111772    0.026668  13.840    0.00108    0.00749
        341    55 -103.084904 -103.111798    0.026894  13.840    0.00107    0.00740
        342    56 -103.084700 -103.110316    0.025616  13.840    0.00102    0.00726
        343    56 -103.084492 -103.107467    0.022974  13.840    0.00094    0.00708
        344    54 -103.084296 -103.103212    0.018916  13.840    0.00087    0.00671
        345    54 -103.084129 -103.098247    0.014118  13.840    0.00081    0.00607
        346    56 -103.084005 -103.092509    0.008504  13.840    0.00077    0.00532
        347    56 -103.083934 -103.086595    0.002661  13.840    0.00075    0.00457
        348    54 -103.083915 -103.080830    0.003085  13.840    0.00073    0.00396
        349    56 -103.083944 -103.074920    0.009024  13.840    0.00071    0.00367
        350    56 -103.084018 -103.069149    0.014869  13.840    0.00068    0.00377
        351    56 -103.084131 -103.063837    0.020294  13.840    0.00066    0.00416
        352    58 -103.084276 -103.059225    0.025051  13.840    0.00063    0.00461
        353    60 -103.084448 -103.055484    0.028964  13.840    0.00062    0.00495
        354    60 -103.084636 -103.052790    0.031846  13.840    0.00061    0.00513
        355    56 -103.084832 -103.051389    0.033443  13.840    0.00059    0.00569
        356    54 -103.085051 -103.053150    0.031901  13.840    0.00056    0.00574
        357    55 -103.085248 -103.055745    0.029503  13.840    0.00058    0.00499
        358    55 -103.085327 -103.059646    0.025680  13.840    0.00059    0.00439
        359    49 -103.085422 -103.065921    0.019501  13.840    0.00060    0.00366
        360    49 -103.085460 -103.072042    0.013418  13.840    0.00061    0.00302
        361    53 -103.085472 -103.078195    0.007276  13.840    0.00061    0.00263
        362    53 -103.085435 -103.083521    0.001914  13.840    0.00060    0.00255
        363    53 -103.085368 -103.088331    0.002963  13.840    0.00059    0.00272
        364    55 -103.085271 -103.092366    0.007094  13.840    0.00057    0.00298
        365    55 -103.085161 -103.096199    0.011038  13.840    0.00056    0.00306
        366    49 -103.085042 -103.098646    0.013604  13.840    0.00054    0.00308
        367    49 -103.084924 -103.100420    0.015495  13.840    0.00053    0.00303
        368    49 -103.084813 -103.101232    0.016419  13.840    0.00051    0.00302
        369    55 -103.084706 -103.101566    0.016861  13.840    0.00050    0.00299
        370    55 -103.084611 -103.101079    0.016468  13.840    0.00049    0.00297
        371    54 -103.084526 -103.100283    0.015758  13.840    0.00049    0.00297
        372    54 -103.084456 -103.098974    0.014517  13.840    0.00048    0.00298
        373    56 -103.084399 -103.097448    0.013049  13.840    0.00047    0.00297
        374    54 -103.084356 -103.095778    0.011422  13.840    0.00046    0.00292
        375    59 -103.084328 -103.094165    0.009836  13.840    0.00044    0.00285
        376    54 -103.084312 -103.092657    0.008345  13.840    0.00043    0.00276
        377    54 -103.084306 -103.091294    0.006988  13.840    0.00043    0.00265
        378    53 -103.084306 -103.090344    0.006038  13.840    0.00043    0.00250
        379    55 -103.084308 -103.089293    0.004984  13.840    0.00043    0.00232
        380    55 -103.084311 -103.088394    0.004083  13.840    0.00044    0.00209
        381    53 -103.084314 -103.087480    0.003166  13.840    0.00044    0.00182
        382    53 -103.084313 -103.086718    0.002405  13.840    0.00045    0.00151
        383    53 -103.084308 -103.085757    0.001450  13.840    0.00045    0.00125
        384    53 -103.084300 -103.084604    0.000304  13.840    0.00045    0.00111
        385    53 -103.084277 -103.083245    0.001032  13.840    0.00042    0.00114
        386    53 -103.084214 -103.081944    0.002270  13.840    0.00037    0.00160
        387    54 -103.084241 -103.081255    0.002986  13.840    0.00036    0.00165
        388    53 -103.084219 -103.080117    0.004102  13.840    0.00033    0.00175
        389    53 -103.084235 -103.079269    0.004965  13.840    0.00031    0.00182
        390    59 -103.084240 -103.078167    0.006073  13.840    0.00030    0.00187
        391    60 -103.084266 -103.077099    0.007167  13.840    0.00030    0.00189
        392    60 -103.084296 -103.075958    0.008338  13.840    0.00029    0.00191
        393    59 -103.084336 -103.075140    0.009195  13.840    0.00029    0.00190
        394    60 -103.084379 -103.074578    0.009801  13.840    0.00029    0.00188
        395    60 -103.084431 -103.074325    0.010106  13.840    0.00030    0.00185
        396    56 -103.084484 -103.074532    0.009952  13.840    0.00030    0.00181
        397    56 -103.084535 -103.075185    0.009350  13.840    0.00031    0.00175
        398    60 -103.084580 -103.076286    0.008294  13.840    0.00031    0.00165
        399    56 -103.084616 -103.077740    0.006876  13.840    0.00031    0.00151

        ==> Orbital Optimization <==

            Orbital Optimization converged in  19 iterations 
            Total energy change: -1.622230e-03
            Final gradient norm: 9.244013e-05

        400    56 -103.086264 -103.456087    0.369823   3.232    0.00032    0.00136
        401    79 -103.062616 -104.015662    0.953046   3.232    0.02576    0.12471
        402    47 -103.043565 -103.849844    0.806279   3.232    0.03589    0.09478
        403    41 -103.024203 -103.638241    0.614038   3.232    0.02997    0.07537
        404    42 -103.016780 -103.461798    0.445017   3.232    0.02869    0.06431
        405    42 -103.014284 -103.311623    0.297339   3.232    0.02621    0.05858
        406    41 -103.017993 -103.177214    0.159221   3.232    0.02564    0.05159
        407    37 -103.022777 -103.034467    0.011690   3.232    0.02344    0.05079
        408    35 -103.030777 -102.946735    0.084042   3.232    0.02190    0.05319
        409    36 -103.041618 -102.885868    0.155749   3.232    0.01950    0.05701
        410    37 -103.048134 -102.838948    0.209186   3.232    0.01676    0.05627
        411    42 -103.052102 -102.853713    0.198389   3.232    0.01805    0.04995
        412    42 -103.057701 -102.883693    0.174009   3.232    0.01648    0.04557
        413    42 -103.062694 -102.877528    0.185166   3.232    0.01459    0.04109
        414    37 -103.067760 -102.847773    0.219987   3.232    0.01206    0.03962
        415    42 -103.072055 -102.813046    0.259009   3.232    0.00879    0.04315
        416    41 -103.078936 -102.788177    0.290759   3.232    0.00599    0.04496
        417    38 -103.085383 -102.771993    0.313390   3.232    0.00483    0.04517
        418    42 -103.091200 -102.774602    0.316598   3.232    0.00519    0.04282
        419    38 -103.094691 -102.787632    0.307059   3.232    0.00637    0.03883
        420    47 -103.100513 -102.834406    0.266108   3.232    0.00698    0.03568
        421    41 -103.104979 -102.875776    0.229203   3.232    0.00829    0.02983
        422    42 -103.107416 -102.921709    0.185707   3.232    0.00998    0.02303
        423    43 -103.108745 -102.981634    0.127112   3.232    0.01138    0.01655
        424    41 -103.109392 -103.044141    0.065251   3.232    0.01183    0.01035
        425    47 -103.107673 -103.103131    0.004542   3.232    0.01158    0.00817
        426    42 -103.105682 -103.155932    0.050250   3.232    0.01087    0.01200
        427    41 -103.102647 -103.202498    0.099850   3.232    0.00913    0.01734
        428    41 -103.100424 -103.239252    0.138828   3.232    0.00643    0.02090
        429    41 -103.097812 -103.258079    0.160266   3.232    0.00462    0.02339
        430    37 -103.095190 -103.263638    0.168448   3.232    0.00409    0.02449
        431    38 -103.092452 -103.260851    0.168399   3.232    0.00502    0.02424
        432    41 -103.089883 -103.250031    0.160148   3.232    0.00646    0.02254
        433    42 -103.087634 -103.229053    0.141418   3.232    0.00761    0.02001
        434    41 -103.085953 -103.202432    0.116479   3.232    0.00850    0.01702
        435    41 -103.084567 -103.170562    0.085995   3.232    0.00850    0.01417
        436    41 -103.082730 -103.141173    0.058442   3.232    0.00743    0.01159
        437    42 -103.081990 -103.115386    0.033396   3.232    0.00685    0.00829
        438    41 -103.081168 -103.092358    0.011191   3.232    0.00639    0.00679
        439    43 -103.080736 -103.071202    0.009534   3.232    0.00547    0.00878
        440    46 -103.081334 -103.054430    0.026904   3.232    0.00386    0.01096
        441    47 -103.082506 -103.038858    0.043648   3.232    0.00333    0.01094
        442    45 -103.084230 -103.022478    0.061752   3.232    0.00319    0.01093
        443    42 -103.085875 -103.010995    0.074879   3.232    0.00304    0.01156
        444    41 -103.087657 -103.009153    0.078504   3.232    0.00319    0.01178
        445    42 -103.088287 -103.005465    0.082821   3.232    0.00313    0.01175
        446    37 -103.089921 -103.008375    0.081547   3.232    0.00259    0.01119
        447    38 -103.090711 -103.008651    0.082060   3.232    0.00251    0.01039
        448    36 -103.091858 -103.016145    0.075713   3.232    0.00234    0.00934
        449    42 -103.092655 -103.027446    0.065208   3.232    0.00282    0.00791
        450    41 -103.093465 -103.043137    0.050328   3.232    0.00304    0.00627
        451    42 -103.093847 -103.059364    0.034482   3.232    0.00321    0.00482
        452    42 -103.094036 -103.074403    0.019633   3.232    0.00315    0.00377
        453    41 -103.093909 -103.087499    0.006410   3.232    0.00303    0.00354
        454    41 -103.093494 -103.100892    0.007398   3.232    0.00283    0.00380
        455    37 -103.092832 -103.111560    0.018729   3.232    0.00254    0.00512
        456    42 -103.091859 -103.123355    0.031496   3.232    0.00223    0.00565
        457    42 -103.090857 -103.130949    0.040093   3.232    0.00192    0.00622
        458    42 -103.089815 -103.137364    0.047549   3.232    0.00161    0.00678
        459    42 -103.088741 -103.140497    0.051756   3.232    0.00143    0.00698
        460    47 -103.087716 -103.139602    0.051885   3.232    0.00133    0.00726
        461    42 -103.086727 -103.138111    0.051383   3.232    0.00138    0.00686
        462    47 -103.085860 -103.133475    0.047614   3.232    0.00146    0.00623
        463    42 -103.085099 -103.127566    0.042467   3.232    0.00155    0.00565
        464    46 -103.084521 -103.120701    0.036180   3.232    0.00155    0.00505
        465    41 -103.084127 -103.113499    0.029372   3.232    0.00156    0.00465
        466    41 -103.083920 -103.107340    0.023420   3.232    0.00161    0.00439
        467    42 -103.083888 -103.100736    0.016847   3.232    0.00166    0.00439
        468    38 -103.084050 -103.097055    0.013005   3.232    0.00157    0.00386
        469    42 -103.083818 -103.091050    0.007232   3.232    0.00135    0.00358
        470    47 -103.083955 -103.088383    0.004428   3.232    0.00143    0.00301
        471    47 -103.083903 -103.084681    0.000778   3.232    0.00156    0.00241
        472    47 -103.084030 -103.082018    0.002012   3.232    0.00158    0.00202
        473    42 -103.084172 -103.078817    0.005355   3.232    0.00147    0.00219
        474    42 -103.084436 -103.075872    0.008564   3.232    0.00124    0.00266
        475    42 -103.084751 -103.072780    0.011971   3.232    0.00103    0.00307
        476    45 -103.085006 -103.069946    0.015061   3.232    0.00076    0.00334
        477    44 -103.085344 -103.068318    0.017026   3.232    0.00066    0.00347
        478    41 -103.085840 -103.067480    0.018359   3.232    0.00073    0.00336
        479    37 -103.086239 -103.066538    0.019701   3.232    0.00083    0.00309
        480    42 -103.086659 -103.066489    0.020170   3.232    0.00087    0.00284
        481    42 -103.086997 -103.066824    0.020173   3.232    0.00084    0.00268
        482    41 -103.087156 -103.068014    0.019143   3.232    0.00069    0.00270
        483    42 -103.087416 -103.070287    0.017129   3.232    0.00070    0.00246
        484    41 -103.087610 -103.072008    0.015602   3.232    0.00075    0.00222
        485    42 -103.087788 -103.074204    0.013584   3.232    0.00079    0.00194
        486    42 -103.087904 -103.076354    0.011550   3.232    0.00085    0.00168
        487    42 -103.087985 -103.078916    0.009068   3.232    0.00088    0.00149
        488    41 -103.088027 -103.081611    0.006417   3.232    0.00090    0.00136
        489    41 -103.088042 -103.084466    0.003575   3.232    0.00090    0.00126
        490    41 -103.088019 -103.087247    0.000772   3.232    0.00088    0.00123
        491    38 -103.087954 -103.090075    0.002121   3.232    0.00084    0.00120
        492    38 -103.087840 -103.092324    0.004485   3.232    0.00080    0.00124
        493    41 -103.087686 -103.094195    0.006509   3.232    0.00074    0.00143
        494    41 -103.087492 -103.096199    0.008707   3.232    0.00066    0.00155
        495    41 -103.087266 -103.097227    0.009961   3.232    0.00059    0.00173
        496    39 -103.087018 -103.097965    0.010947   3.232    0.00052    0.00188
        497    42 -103.086769 -103.098325    0.011555   3.232    0.00048    0.00199
        498    43 -103.086528 -103.098472    0.011944   3.232    0.00046    0.00202
        499    43 -103.086305 -103.098318    0.012013   3.232    0.00048    0.00199
        500    47 -103.086104 -103.097909    0.011806   3.232    0.00052    0.00190
        501    47 -103.085926 -103.097217    0.011291   3.232    0.00057    0.00175
        502    47 -103.085772 -103.096269    0.010496   3.232    0.00060    0.00157
        503    47 -103.085643 -103.095090    0.009448   3.232    0.00063    0.00137
        504    47 -103.085538 -103.093743    0.008205   3.232    0.00064    0.00118
        505    47 -103.085459 -103.092288    0.006829   3.232    0.00063    0.00101
        506    47 -103.085404 -103.090787    0.005383   3.232    0.00061    0.00089
        507    46 -103.085373 -103.089288    0.003915   3.232    0.00059    0.00084
        508    47 -103.085368 -103.087828    0.002460   3.232    0.00057    0.00084
        509    47 -103.085384 -103.086428    0.001044   3.232    0.00056    0.00088
        510    47 -103.085422 -103.085159    0.000263   3.232    0.00055    0.00092
        511    42 -103.085478 -103.084025    0.001453   3.232    0.00055    0.00095
        512    42 -103.085546 -103.082933    0.002613   3.232    0.00054    0.00100
        513    42 -103.085625 -103.081904    0.003721   3.232    0.00052    0.00108
        514    42 -103.085717 -103.080949    0.004767   3.232    0.00049    0.00116
        515    42 -103.085819 -103.080096    0.005724   3.232    0.00044    0.00124
        516    42 -103.085934 -103.079361    0.006573   3.232    0.00040    0.00130
        517    42 -103.086056 -103.078780    0.007276   3.232    0.00037    0.00133
        518    42 -103.086185 -103.078378    0.007807   3.232    0.00036    0.00132
        519    42 -103.086319 -103.078181    0.008138   3.232    0.00036    0.00128
        520    42 -103.086453 -103.078200    0.008254   3.232    0.00038    0.00122
        521    42 -103.086586 -103.078446    0.008140   3.232    0.00040    0.00112
        522    42 -103.086713 -103.078921    0.007793   3.232    0.00043    0.00101
        523    42 -103.086831 -103.079621    0.007210   3.232    0.00046    0.00089
        524    42 -103.086936 -103.080532    0.006404   3.232    0.00048    0.00075
        525    42 -103.087022 -103.081660    0.005363   3.232    0.00050    0.00060
        526    42 -103.087086 -103.082954    0.004131   3.232    0.00052    0.00046
        527    42 -103.087122 -103.084309    0.002813   3.232    0.00052    0.00037
        528    47 -103.087131 -103.085672    0.001459   3.232    0.00052    0.00037
        529    47 -103.087111 -103.086993    0.000117   3.232    0.00050    0.00049
        530    42 -103.087064 -103.088401    0.001337   3.232    0.00049    0.00056
        531    42 -103.086988 -103.089424    0.002436   3.232    0.00046    0.00064
        532    42 -103.086896 -103.090394    0.003498   3.232    0.00044    0.00072
        533    42 -103.086790 -103.091217    0.004427   3.232    0.00041    0.00081
        534    42 -103.086677 -103.091916    0.005240   3.232    0.00037    0.00086
        535    47 -103.086557 -103.092162    0.005605   3.232    0.00035    0.00088
        536    43 -103.086439 -103.092247    0.005808   3.232    0.00034    0.00089
        537    47 -103.086326 -103.092075    0.005749   3.232    0.00033    0.00088
        538    47 -103.086221 -103.091737    0.005516   3.232    0.00033    0.00085
        539    47 -103.086129 -103.091245    0.005117   3.232    0.00034    0.00080
        540    47 -103.086052 -103.090647    0.004595   3.232    0.00034    0.00075
        541    47 -103.085992 -103.089966    0.003974   3.232    0.00035    0.00068
        542    47 -103.085924 -103.089237    0.003313   3.232    0.00034    0.00062
        543    47 -103.085889 -103.088582    0.002693   3.232    0.00034    0.00055
        544    47 -103.085869 -103.087889    0.002021   3.232    0.00035    0.00048
        545    47 -103.085861 -103.087203    0.001343   3.232    0.00036    0.00042
        546    47 -103.085866 -103.086548    0.000683   3.232    0.00037    0.00035
        547    47 -103.085882 -103.085940    0.000059   3.232    0.00038    0.00029
        548    47 -103.085907 -103.085407    0.000500   3.232    0.00038    0.00026
        549    47 -103.085939 -103.084949    0.000991   3.232    0.00038    0.00028
        550    48 -103.085976 -103.084540    0.001436   3.232    0.00037    0.00034
        551    47 -103.086015 -103.084177    0.001838   3.232    0.00036    0.00041
        552    46 -103.086057 -103.083856    0.002201   3.232    0.00034    0.00048
        553    47 -103.086103 -103.083572    0.002531   3.232    0.00032    0.00053
        554    47 -103.086150 -103.083320    0.002830   3.232    0.00031    0.00057
        555    48 -103.086186 -103.083106    0.003080   3.232    0.00030    0.00060
        556    47 -103.086233 -103.082987    0.003246   3.232    0.00029    0.00060
        557    47 -103.086285 -103.082892    0.003393   3.232    0.00029    0.00058
        558    48 -103.086335 -103.082832    0.003503   3.232    0.00029    0.00057
        559    46 -103.086392 -103.082916    0.003476   3.232    0.00029    0.00056
        560    42 -103.086450 -103.083135    0.003315   3.232    0.00029    0.00053
        561    42 -103.086497 -103.083378    0.003119   3.232    0.00030    0.00049
        562    42 -103.086540 -103.083760    0.002779   3.232    0.00030    0.00045
        563    42 -103.086574 -103.084160    0.002413   3.232    0.00030    0.00041
        564    42 -103.086600 -103.084647    0.001953   3.232    0.00030    0.00036
        565    42 -103.086615 -103.085137    0.001477   3.232    0.00029    0.00032
        566    42 -103.086619 -103.085644    0.000975   3.232    0.00029    0.00028
        567    42 -103.086614 -103.086131    0.000483   3.232    0.00029    0.00025
        568    47 -103.086599 -103.086595    0.000004   3.232    0.00028    0.00024
        569    47 -103.086574 -103.087009    0.000435   3.232    0.00028    0.00024
        570    42 -103.086543 -103.087371    0.000828   3.232    0.00027    0.00027
        571    42 -103.086506 -103.087666    0.001160   3.232    0.00026    0.00030
        572    42 -103.086466 -103.087888    0.001422   3.232    0.00026    0.00033
        573    42 -103.086423 -103.088035    0.001612   3.232    0.00025    0.00035
        574    42 -103.086381 -103.088111    0.001730   3.232    0.00025    0.00037
        575    45 -103.086341 -103.088127    0.001786   3.232    0.00025    0.00038
        576    42 -103.086304 -103.088080    0.001776   3.232    0.00024    0.00039
        577    47 -103.086270 -103.088008    0.001737   3.232    0.00024    0.00039
        578    47 -103.086240 -103.087892    0.001652   3.232    0.00025    0.00039
        579    47 -103.086215 -103.087771    0.001556   3.232    0.00025    0.00038
        580    47 -103.086193 -103.087634    0.001442   3.232    0.00025    0.00036
        581    47 -103.086174 -103.087498    0.001324   3.232    0.00026    0.00033
        582    47 -103.086158 -103.087358    0.001200   3.232    0.00026    0.00030
        583    47 -103.086145 -103.087217    0.001072   3.232    0.00026    0.00026
        584    47 -103.086134 -103.087069    0.000935   3.232    0.00027    0.00022
        585    47 -103.086124 -103.086913    0.000789   3.232    0.00027    0.00018
        586    47 -103.086117 -103.086745    0.000628   3.232    0.00027    0.00015
        587    47 -103.086112 -103.086562    0.000450   3.232    0.00027    0.00014
        588    47 -103.086109 -103.086362    0.000253   3.232    0.00026    0.00014
        589    53 -103.086109 -103.086146    0.000037   3.232    0.00026    0.00015
        590    47 -103.086113 -103.085918    0.000195   3.232    0.00025    0.00017
        591    47 -103.086121 -103.085682    0.000439   3.232    0.00024    0.00019
        592    47 -103.086133 -103.085446    0.000688   3.232    0.00024    0.00021
        593    47 -103.086150 -103.085217    0.000933   3.232    0.00023    0.00023
        594    47 -103.086171 -103.085007    0.001164   3.232    0.00023    0.00024
        595    47 -103.086195 -103.084824    0.001371   3.232    0.00022    0.00025
        596    47 -103.086223 -103.084678    0.001545   3.232    0.00022    0.00026
        597    47 -103.086253 -103.084575    0.001678   3.232    0.00022    0.00027
        598    47 -103.086283 -103.084521    0.001763   3.232    0.00022    0.00026
        599    42 -103.086314 -103.084514    0.001800   3.232    0.00022    0.00026

        ==> Orbital Optimization <==

            Orbital Optimization converged in  17 iterations 
            Total energy change: -7.707043e-05
            Final gradient norm: 8.557332e-05

        600    42 -103.086420 -103.339828    0.253408   2.877    0.00022    0.00024
        601    79 -103.080033 -103.334924    0.254892   2.877    0.01338    0.04300
        602    49 -103.074201 -103.276377    0.202177   2.877    0.01635    0.02929
        603    42 -103.069789 -103.211161    0.141372   2.877    0.01420    0.02424
        604    40 -103.067281 -103.153552    0.086272   2.877    0.01170    0.02070
        605    37 -103.066624 -103.112029    0.045405   2.877    0.01064    0.01661
        606    38 -103.067780 -103.086861    0.019081   2.877    0.00993    0.01488
        607    38 -103.070035 -103.064551    0.005484   2.877    0.00880    0.01615
        608    40 -103.072191 -103.044104    0.028087   2.877    0.00728    0.01810
        609    36 -103.074193 -103.032945    0.041247   2.877    0.00666    0.01873
        610    39 -103.075980 -103.024905    0.051074   2.877    0.00661    0.01823
        611    39 -103.078203 -103.021510    0.056693   2.877    0.00628    0.01782
        612    38 -103.080554 -103.020339    0.060215   2.877    0.00546    0.01704
        613    38 -103.082570 -103.020447    0.062123   2.877    0.00502    0.01569
        614    41 -103.084059 -103.021184    0.062875   2.877    0.00552    0.01328
        615    38 -103.085541 -103.026852    0.058688   2.877    0.00534    0.01083
        616    39 -103.087348 -103.029160    0.058188   2.877    0.00439    0.01069
        617    41 -103.088187 -103.026040    0.062147   2.877    0.00310    0.01173
        618    37 -103.089509 -103.024791    0.064719   2.877    0.00258    0.01171
        619    41 -103.090770 -103.023152    0.067618   2.877    0.00298    0.01066
        620    42 -103.092323 -103.026929    0.065394   2.877    0.00339    0.00917
        621    42 -103.092230 -103.033941    0.058288   2.877    0.00322    0.00886
        622    41 -103.093005 -103.053201    0.039804   2.877    0.00264    0.00773
        623    38 -103.093133 -103.066014    0.027119   2.877    0.00274    0.00653
        624    42 -103.092907 -103.074335    0.018572   2.877    0.00276    0.00518
        625    42 -103.092852 -103.081908    0.010944   2.877    0.00309    0.00346
        626    42 -103.092768 -103.088458    0.004310   2.877    0.00311    0.00284
        627    42 -103.092294 -103.094516    0.002222   2.877    0.00263    0.00324
        628    37 -103.091452 -103.102011    0.010560   2.877    0.00236    0.00373
        629    37 -103.091067 -103.110515    0.019447   2.877    0.00205    0.00469
        630    42 -103.090137 -103.119380    0.029243   2.877    0.00179    0.00486
        631    37 -103.089354 -103.124101    0.034746   2.877    0.00148    0.00526
        632    37 -103.088389 -103.127580    0.039191   2.877    0.00125    0.00551
        633    42 -103.087522 -103.127877    0.040354   2.877    0.00111    0.00551
        634    42 -103.086665 -103.126591    0.039926   2.877    0.00108    0.00532
        635    45 -103.085972 -103.123287    0.037315   2.877    0.00110    0.00497
        636    41 -103.085412 -103.118929    0.033517   2.877    0.00114    0.00479
        637    47 -103.084977 -103.115775    0.030798   2.877    0.00113    0.00444
        638    40 -103.084713 -103.111364    0.026651   2.877    0.00117    0.00407
        639    42 -103.084491 -103.107267    0.022776   2.877    0.00121    0.00376
        640    41 -103.084306 -103.102492    0.018186   2.877    0.00127    0.00348
        641    37 -103.084190 -103.098337    0.014148   2.877    0.00137    0.00313
        642    37 -103.084049 -103.094385    0.010336   2.877    0.00149    0.00269
        643    42 -103.083873 -103.091385    0.007513   2.877    0.00161    0.00244
        644    42 -103.083855 -103.089311    0.005456   2.877    0.00171    0.00210
        645    41 -103.083884 -103.086115    0.002231   2.877    0.00166    0.00197
        646    42 -103.084005 -103.083123    0.000883   2.877    0.00156    0.00201
        647    41 -103.084183 -103.079954    0.004229   2.877    0.00141    0.00206
        648    41 -103.084409 -103.076956    0.007453   2.877    0.00126    0.00210
        649    41 -103.084670 -103.074264    0.010406   2.877    0.00109    0.00217
        650    41 -103.084839 -103.072126    0.012713   2.877    0.00087    0.00234
        651    42 -103.085196 -103.070798    0.014398   2.877    0.00073    0.00245
        652    42 -103.085499 -103.069834    0.015665   2.877    0.00060    0.00256
        653    42 -103.085874 -103.069174    0.016699   2.877    0.00051    0.00266
        654    42 -103.086214 -103.068773    0.017441   2.877    0.00046    0.00271
        655    42 -103.086573 -103.068652    0.017921   2.877    0.00047    0.00271
        656    42 -103.086915 -103.068850    0.018065   2.877    0.00052    0.00264
        657    41 -103.087262 -103.069428    0.017833   2.877    0.00060    0.00250
        658    41 -103.087591 -103.070448    0.017142   2.877    0.00070    0.00229
        659    41 -103.087900 -103.071947    0.015953   2.877    0.00079    0.00204
        660    37 -103.088180 -103.074155    0.014025   2.877    0.00086    0.00172
        661    37 -103.088309 -103.076458    0.011851   2.877    0.00085    0.00139
        662    40 -103.088293 -103.079481    0.008812   2.877    0.00089    0.00116
        663    36 -103.088411 -103.082842    0.005569   2.877    0.00086    0.00096
        664    40 -103.088341 -103.085831    0.002510   2.877    0.00083    0.00093
        665    41 -103.088279 -103.088874    0.000594   2.877    0.00077    0.00101
        666    41 -103.088118 -103.091281    0.003163   2.877    0.00070    0.00113
        667    41 -103.087939 -103.093400    0.005461   2.877    0.00064    0.00126
        668    42 -103.087709 -103.094994    0.007285   2.877    0.00060    0.00137
        669    42 -103.087466 -103.096200    0.008735   2.877    0.00058    0.00144
        670    42 -103.087202 -103.096968    0.009766   2.877    0.00057    0.00150
        671    47 -103.086940 -103.097373    0.010433   2.877    0.00056    0.00153
        672    47 -103.086686 -103.097440    0.010754   2.877    0.00055    0.00155
        673    47 -103.086452 -103.097200    0.010747   2.877    0.00054    0.00155
        674    42 -103.086245 -103.096704    0.010459   2.877    0.00051    0.00155
        675    41 -103.086068 -103.095987    0.009919   2.877    0.00048    0.00154
        676    41 -103.085923 -103.095119    0.009196   2.877    0.00045    0.00153
        677    41 -103.085803 -103.094209    0.008406   2.877    0.00043    0.00149
        678    38 -103.085723 -103.093133    0.007410   2.877    0.00043    0.00145
        679    47 -103.085667 -103.092114    0.006447   2.877    0.00045    0.00138
        680    47 -103.085640 -103.091050    0.005411   2.877    0.00049    0.00130
        681    42 -103.085631 -103.090079    0.004448   2.877    0.00054    0.00120
        682    42 -103.085641 -103.089134    0.003494   2.877    0.00059    0.00108
        683    42 -103.085655 -103.088286    0.002631   2.877    0.00064    0.00091
        684    42 -103.085673 -103.087626    0.001953   2.877    0.00068    0.00069
        685    41 -103.085695 -103.086931    0.001236   2.877    0.00069    0.00048
        686    41 -103.085717 -103.086164    0.000447   2.877    0.00066    0.00038
        687    42 -103.085743 -103.085321    0.000422   2.877    0.00062    0.00045
        688    42 -103.085768 -103.084426    0.001342   2.877    0.00056    0.00060
        689    41 -103.085792 -103.083527    0.002265   2.877    0.00050    0.00076
        690    41 -103.085844 -103.082686    0.003158   2.877    0.00044    0.00089
        691    42 -103.085898 -103.081861    0.004037   2.877    0.00039    0.00098
        692    42 -103.085974 -103.081146    0.004828   2.877    0.00035    0.00103
        693    38 -103.086060 -103.080541    0.005518   2.877    0.00033    0.00105
        694    42 -103.086161 -103.080074    0.006087   2.877    0.00032    0.00104
        695    42 -103.086272 -103.079755    0.006516   2.877    0.00031    0.00101
        696    47 -103.086391 -103.079606    0.006785   2.877    0.00031    0.00097
        697    47 -103.086516 -103.079632    0.006885   2.877    0.00030    0.00099
        698    42 -103.086635 -103.080102    0.006533   2.877    0.00030    0.00091
        699    42 -103.086744 -103.080397    0.006347   2.877    0.00030    0.00086
        700    42 -103.086833 -103.080987    0.005846   2.877    0.00030    0.00079
        701    42 -103.086916 -103.081598    0.005318   2.877    0.00031    0.00072
        702    42 -103.086984 -103.082353    0.004631   2.877    0.00032    0.00064
        703    42 -103.087036 -103.083178    0.003858   2.877    0.00033    0.00055
        704    42 -103.087069 -103.084082    0.002987   2.877    0.00034    0.00045
        705    42 -103.087082 -103.085016    0.002066   2.877    0.00035    0.00036
        706    42 -103.087076 -103.085959    0.001117   2.877    0.00035    0.00030
        707    47 -103.087053 -103.086871    0.000183   2.877    0.00035    0.00028
        708    42 -103.087012 -103.087720    0.000708   2.877    0.00034    0.00031
        709    42 -103.086959 -103.088487    0.001528   2.877    0.00033    0.00037
        710    42 -103.086893 -103.089151    0.002258   2.877    0.00032    0.00043
        711    42 -103.086819 -103.089703    0.002884   2.877    0.00031    0.00049
        712    42 -103.086738 -103.090138    0.003400   2.877    0.00030    0.00055
        713    42 -103.086653 -103.090455    0.003802   2.877    0.00029    0.00059
        714    42 -103.086567 -103.090656    0.004089   2.877    0.00027    0.00062
        715    42 -103.086482 -103.090743    0.004261   2.877    0.00026    0.00064
        716    42 -103.086401 -103.090722    0.004321   2.877    0.00026    0.00065
        717    42 -103.086326 -103.090597    0.004272   2.877    0.00026    0.00066
        718    42 -103.086258 -103.090377    0.004119   2.877    0.00026    0.00065
        719    42 -103.086200 -103.090072    0.003872   2.877    0.00027    0.00063
        720    42 -103.086153 -103.089695    0.003542   2.877    0.00028    0.00061
        721    42 -103.086116 -103.089259    0.003144   2.877    0.00030    0.00057
        722    42 -103.086089 -103.088782    0.002693   2.877    0.00031    0.00053
        723    42 -103.086072 -103.088280    0.002208   2.877    0.00032    0.00048
        724    42 -103.086064 -103.087771    0.001707   2.877    0.00033    0.00042
        725    42 -103.086064 -103.087270    0.001205   2.877    0.00034    0.00037
        726    42 -103.086071 -103.086788    0.000718   2.877    0.00035    0.00031
        727    42 -103.086082 -103.086336    0.000254   2.877    0.00035    0.00026
        728    47 -103.086099 -103.085921    0.000178   2.877    0.00034    0.00022
        729    47 -103.086119 -103.085546    0.000573   2.877    0.00034    0.00021
        730    48 -103.086141 -103.085212    0.000930   2.877    0.00033    0.00022
        731    47 -103.086166 -103.084921    0.001245   2.877    0.00031    0.00026
        732    47 -103.086192 -103.084668    0.001524   2.877    0.00030    0.00030
        733    47 -103.086221 -103.084449    0.001772   2.877    0.00028    0.00034
        734    47 -103.086251 -103.084261    0.001990   2.877    0.00026    0.00038
        735    47 -103.086284 -103.084104    0.002180   2.877    0.00025    0.00042
        736    47 -103.086316 -103.083994    0.002322   2.877    0.00023    0.00044
        737    47 -103.086350 -103.083906    0.002444   2.877    0.00022    0.00046
        738    47 -103.086384 -103.083858    0.002526   2.877    0.00021    0.00047
        739    47 -103.086420 -103.083842    0.002577   2.877    0.00021    0.00047
        740    47 -103.086455 -103.083868    0.002587   2.877    0.00021    0.00046
        741    47 -103.086489 -103.083932    0.002558   2.877    0.00021    0.00045
        742    48 -103.086523 -103.084039    0.002484   2.877    0.00022    0.00043
        743    47 -103.086555 -103.084189    0.002366   2.877    0.00022    0.00040
        744    47 -103.086585 -103.084383    0.002202   2.877    0.00023    0.00037
        745    42 -103.086611 -103.084615    0.001996   2.877    0.00024    0.00033
        746    42 -103.086634 -103.084891    0.001743   2.877    0.00024    0.00029
        747    42 -103.086651 -103.085193    0.001458   2.877    0.00024    0.00025
        748    42 -103.086663 -103.085522    0.001141   2.877    0.00025    0.00021
        749    47 -103.086669 -103.085868    0.000801   2.877    0.00025    0.00017
        750    48 -103.086669 -103.086215    0.000454   2.877    0.00025    0.00015
        751    48 -103.086663 -103.086561    0.000102   2.877    0.00025    0.00014
        752    48 -103.086650 -103.086890    0.000239   2.877    0.00025    0.00015
        753    48 -103.086633 -103.087196    0.000564   2.877    0.00024    0.00018
        754    47 -103.086610 -103.087470    0.000860   2.877    0.00024    0.00021
        755    42 -103.086584 -103.087704    0.001120   2.877    0.00024    0.00024
        756    42 -103.086554 -103.087899    0.001345   2.877    0.00023    0.00027
        757    42 -103.086523 -103.088044    0.001521   2.877    0.00023    0.00030
        758    42 -103.086490 -103.088143    0.001653   2.877    0.00023    0.00032
        759    42 -103.086457 -103.088194    0.001737   2.877    0.00022    0.00033
        760    42 -103.086425 -103.088199    0.001774   2.877    0.00022    0.00034
        761    47 -103.086393 -103.088165    0.001771   2.877    0.00022    0.00034
        762    47 -103.086364 -103.088082    0.001718   2.877    0.00022    0.00034
        763    47 -103.086338 -103.087972    0.001635   2.877    0.00022    0.00033
        764    47 -103.086314 -103.087827    0.001513   2.877    0.00022    0.00031
        765    47 -103.086294 -103.087659    0.001366   2.877    0.00022    0.00029
        766    47 -103.086277 -103.087470    0.001193   2.877    0.00023    0.00026
        767    47 -103.086264 -103.087266    0.001002   2.877    0.00023    0.00023
[...]
       1625    37 -103.086111 -103.084791    0.001320   1.909    0.00026    0.00053
       1626    37 -103.086191 -103.084548    0.001643   1.909    0.00023    0.00052
       1627    37 -103.086278 -103.084429    0.001849   1.909    0.00021    0.00049
       1628    37 -103.086365 -103.084432    0.001933   1.909    0.00023    0.00045
       1629    38 -103.086446 -103.084553    0.001893   1.909    0.00025    0.00039
       1630    38 -103.086515 -103.084771    0.001745   1.909    0.00028    0.00032
       1631    39 -103.086568 -103.085066    0.001502   1.909    0.00030    0.00026
       1632    39 -103.086602 -103.085411    0.001191   1.909    0.00030    0.00021
       1633    39 -103.086616 -103.085778    0.000838   1.909    0.00029    0.00020
       1634    39 -103.086612 -103.086137    0.000475   1.909    0.00026    0.00024
       1635    38 -103.086591 -103.086460    0.000131   1.909    0.00022    0.00028
       1636    37 -103.086558 -103.086725    0.000167   1.909    0.00018    0.00032
       1637    38 -103.086515 -103.086922    0.000406   1.909    0.00014    0.00035
       1638    41 -103.086471 -103.087040    0.000569   1.909    0.00012    0.00036
       1639    42 -103.086424 -103.087089    0.000665   1.909    0.00013    0.00035
       1640    41 -103.086382 -103.087069    0.000687   1.909    0.00017    0.00032
       1641    38 -103.086345 -103.086996    0.000652   1.909    0.00020    0.00028
       1642    38 -103.086314 -103.086882    0.000568   1.909    0.00024    0.00023
       1643    38 -103.086291 -103.086741    0.000450   1.909    0.00026    0.00018
       1644    38 -103.086274 -103.086583    0.000309   1.909    0.00027    0.00013
       1645    42 -103.086265 -103.086422    0.000157   1.909    0.00027    0.00010
       1646    42 -103.086263 -103.086263    0.000000   1.909    0.00026    0.00011
       1647    42 -103.086267 -103.086119    0.000148   1.909    0.00024    0.00014
       1648    42 -103.086277 -103.085993    0.000284   1.909    0.00021    0.00018
       1649    41 -103.086292 -103.085892    0.000400   1.909    0.00018    0.00021
       1650    39 -103.086312 -103.085820    0.000492   1.909    0.00015    0.00023
       1651    41 -103.086335 -103.085781    0.000554   1.909    0.00013    0.00023
       1652    38 -103.086359 -103.085773    0.000586   1.909    0.00011    0.00023
       1653    38 -103.086384 -103.085801    0.000582   1.909    0.00011    0.00021
       1654    40 -103.086407 -103.085857    0.000550   1.909    0.00012    0.00018
       1655    40 -103.086426 -103.085943    0.000483   1.909    0.00013    0.00015
       1656    40 -103.086440 -103.086047    0.000393   1.909    0.00014    0.00011
       1657    40 -103.086448 -103.086167    0.000281   1.909    0.00014    0.00008
       1658    41 -103.086450 -103.086291    0.000159   1.909    0.00014    0.00006
       1659    41 -103.086445 -103.086413    0.000032   1.909    0.00013    0.00007
       1660    41 -103.086434 -103.086523    0.000088   1.909    0.00012    0.00009
       1661    41 -103.086418 -103.086614    0.000195   1.909    0.00011    0.00011
       1662    38 -103.086399 -103.086682    0.000283   1.909    0.00011    0.00013
       1663    38 -103.086377 -103.086716    0.000339   1.909    0.00011    0.00014
       1664    38 -103.086355 -103.086724    0.000369   1.909    0.00011    0.00015
       1665    38 -103.086334 -103.086698    0.000364   1.909    0.00012    0.00014
       1666    38 -103.086315 -103.086646    0.000331   1.909    0.00013    0.00013
       1667    38 -103.086299 -103.086569    0.000270   1.909    0.00014    0.00011
       1668    38 -103.086288 -103.086475    0.000187   1.909    0.00015    0.00009
       1669    41 -103.086281 -103.086372    0.000090   1.909    0.00016    0.00007
       1670    41 -103.086280 -103.086260    0.000020   1.909    0.00016    0.00005
       1671    42 -103.086284 -103.086154    0.000130   1.909    0.00016    0.00005
       1672    42 -103.086293 -103.086055    0.000237   1.909    0.00015    0.00006
       1673    42 -103.086306 -103.085973    0.000333   1.909    0.00014    0.00007
       1674    42 -103.086322 -103.085908    0.000414   1.909    0.00013    0.00009
       1675    42 -103.086340 -103.085865    0.000475   1.909    0.00012    0.00010
       1676    42 -103.086359 -103.085846    0.000513   1.909    0.00011    0.00010
       1677    42 -103.086378 -103.085851    0.000527   1.909    0.00010    0.00010
       1678    41 -103.086397 -103.085879    0.000518   1.909    0.00010    0.00010
       1679    42 -103.086413 -103.085926    0.000487   1.909    0.00009    0.00009
       1680    41 -103.086426 -103.085991    0.000435   1.909    0.00009    0.00007
       1681    42 -103.086435 -103.086067    0.000368   1.909    0.00009    0.00005
       1682    42 -103.086441 -103.086152    0.000289   1.909    0.00009    0.00004
       1683    42 -103.086443 -103.086240    0.000203   1.909    0.00009    0.00002
       1684    49 -103.086440 -103.086327    0.000114   1.909    0.00009    0.00002
       1685    49 -103.086434 -103.086406    0.000028   1.909    0.00009    0.00004

        ==> Orbital Optimization <==

            Orbital Optimization converged in   4 iterations 
            Total energy change: -1.029852e-07
            Final gradient norm: 5.450781e-05

       1686    70 -103.086565 -103.081193    0.005372   1.909    0.00047    0.00102
       1687    47 -103.086787 -103.082574    0.004214   1.909    0.00048    0.00060
       1688    42 -103.086932 -103.083955    0.002977   1.909    0.00038    0.00053
       1689    41 -103.086962 -103.085102    0.001860   1.909    0.00032    0.00046
       1690    37 -103.086928 -103.085999    0.000929   1.909    0.00030    0.00039
       1691    41 -103.086884 -103.086630    0.000253   1.909    0.00028    0.00038
       1692    41 -103.086841 -103.087034    0.000192   1.909    0.00025    0.00040
       1693    41 -103.086789 -103.087254    0.000465   1.909    0.00024    0.00041
       1694    41 -103.086725 -103.087413    0.000688   1.909    0.00024    0.00039
       1695    41 -103.086656 -103.087546    0.000891   1.909    0.00023    0.00037
       1696    41 -103.086579 -103.087620    0.001041   1.909    0.00021    0.00036
       1697    41 -103.086503 -103.087660    0.001158   1.909    0.00019    0.00036
       1698    40 -103.086430 -103.087660    0.001229   1.909    0.00018    0.00036
       1699    42 -103.086366 -103.087643    0.001277   1.909    0.00019    0.00035
       1700    42 -103.086312 -103.087612    0.001300   1.909    0.00021    0.00033
       1701    42 -103.086269 -103.087568    0.001299   1.909    0.00023    0.00030
       1702    41 -103.086234 -103.087500    0.001266   1.909    0.00024    0.00027
       1703    41 -103.086207 -103.087399    0.001192   1.909    0.00025    0.00024
       1704    39 -103.086187 -103.087255    0.001068   1.909    0.00025    0.00022
       1705    38 -103.086173 -103.087077    0.000904   1.909    0.00025    0.00021
       1706    37 -103.086166 -103.086868    0.000702   1.909    0.00025    0.00022
       1707    37 -103.086166 -103.086650    0.000484   1.909    0.00024    0.00022
       1708    37 -103.086174 -103.086434    0.000261   1.909    0.00022    0.00022
       1709    37 -103.086187 -103.086236    0.000049   1.909    0.00021    0.00022
       1710    37 -103.086206 -103.086063    0.000142   1.909    0.00019    0.00022
       1711    37 -103.086229 -103.085921    0.000308   1.909    0.00018    0.00021
       1712    37 -103.086254 -103.085811    0.000443   1.909    0.00017    0.00021
       1713    37 -103.086281 -103.085735    0.000546   1.909    0.00016    0.00019
       1714    37 -103.086308 -103.085691    0.000618   1.909    0.00016    0.00018
       1715    38 -103.086335 -103.085679    0.000656   1.909    0.00016    0.00016
       1716    38 -103.086359 -103.085696    0.000663   1.909    0.00015    0.00014
       1717    42 -103.086380 -103.085737    0.000642   1.909    0.00015    0.00014
       1718    42 -103.086397 -103.085796    0.000601   1.909    0.00014    0.00014
       1719    41 -103.086410 -103.085867    0.000543   1.909    0.00013    0.00015
       1720    40 -103.086418 -103.085942    0.000476   1.909    0.00012    0.00016
       1721    41 -103.086423 -103.086014    0.000408   1.909    0.00011    0.00017
       1722    42 -103.086424 -103.086078    0.000345   1.909    0.00010    0.00017
       1723    41 -103.086422 -103.086132    0.000290   1.909    0.00011    0.00017
       1724    41 -103.086419 -103.086173    0.000246   1.909    0.00011    0.00016
       1725    41 -103.086414 -103.086203    0.000211   1.909    0.00012    0.00014
       1726    41 -103.086409 -103.086223    0.000186   1.909    0.00014    0.00012
       1727    42 -103.086403 -103.086234    0.000169   1.909    0.00014    0.00010
       1728    42 -103.086397 -103.086239    0.000158   1.909    0.00015    0.00008
       1729    42 -103.086392 -103.086240    0.000152   1.909    0.00015    0.00007
       1730    43 -103.086388 -103.086239    0.000149   1.909    0.00015    0.00007
       1731    42 -103.086384 -103.086235    0.000149   1.909    0.00015    0.00007
       1732    42 -103.086382 -103.086231    0.000150   1.909    0.00014    0.00008
       1733    42 -103.086380 -103.086228    0.000152   1.909    0.00013    0.00009
       1734    42 -103.086380 -103.086226    0.000154   1.909    0.00012    0.00010
       1735    42 -103.086381 -103.086227    0.000153   1.909    0.00012    0.00011
       1736    39 -103.086382 -103.086234    0.000148   1.909    0.00011    0.00011
       1737    39 -103.086384 -103.086246    0.000138   1.909    0.00010    0.00011
       1738    38 -103.086386 -103.086265    0.000121   1.909    0.00010    0.00011
       1739    38 -103.086388 -103.086291    0.000096   1.909    0.00010    0.00010
       1740    41 -103.086388 -103.086321    0.000067   1.909    0.00010    0.00009
       1741    41 -103.086387 -103.086360    0.000027   1.909    0.00010    0.00008
       1742    42 -103.086385 -103.086397    0.000012   1.909    0.00011    0.00007
       1743    42 -103.086380 -103.086435    0.000055   1.909    0.00011    0.00006
       1744    42 -103.086373 -103.086467    0.000094   1.909    0.00011    0.00005
       1745    42 -103.086365 -103.086492    0.000127   1.909    0.00011    0.00005
       1746    42 -103.086355 -103.086505    0.000150   1.909    0.00011    0.00005
       1747    42 -103.086345 -103.086507    0.000162   1.909    0.00011    0.00005
       1748    42 -103.086335 -103.086494    0.000159   1.909    0.00011    0.00005
       1749    42 -103.086326 -103.086467    0.000141   1.909    0.00012    0.00005
       1750    42 -103.086319 -103.086428    0.000109   1.909    0.00012    0.00005
       1751    42 -103.086314 -103.086378    0.000064   1.909    0.00012    0.00005
       1752    42 -103.086311 -103.086320    0.000009   1.909    0.00012    0.00005
       1753    42 -103.086310 -103.086258    0.000052   1.909    0.00012    0.00004
       1754    42 -103.086313 -103.086196    0.000117   1.909    0.00012    0.00004
       1755    42 -103.086318 -103.086136    0.000182   1.909    0.00012    0.00005
       1756    42 -103.086326 -103.086084    0.000242   1.909    0.00012    0.00005
       1757    42 -103.086335 -103.086041    0.000294   1.909    0.00011    0.00005
       1758    41 -103.086346 -103.086010    0.000336   1.909    0.00011    0.00006
       1759    42 -103.086357 -103.085993    0.000365   1.909    0.00011    0.00006
       1760    42 -103.086369 -103.085989    0.000380   1.909    0.00010    0.00006
       1761    42 -103.086381 -103.086000    0.000381   1.909    0.00010    0.00006
       1762    42 -103.086391 -103.086022    0.000369   1.909    0.00010    0.00005
       1763    42 -103.086400 -103.086056    0.000344   1.909    0.00009    0.00005
       1764    42 -103.086407 -103.086098    0.000309   1.909    0.00009    0.00004
       1765    42 -103.086413 -103.086147    0.000266   1.909    0.00009    0.00003
       1766    43 -103.086416 -103.086199    0.000216   1.909    0.00009    0.00002
       1767    49 -103.086416 -103.086252    0.000164   1.909    0.00009    0.00002
       1768    54 -103.086415 -103.086303    0.000111   1.909    0.00009    0.00001
       1769    55 -103.086411 -103.086352    0.000060   1.909    0.00009    0.00002

        ==> Orbital Optimization <==

            Orbital Optimization converged in   2 iterations 
            Total energy change: -1.812430e-08
            Final gradient norm: 4.989420e-05

       1770    59 -103.086414 -103.085863    0.000551   1.909    0.00012    0.00021
       1771    47 -103.086446 -103.086030    0.000416   1.909    0.00013    0.00011
       1772    47 -103.086457 -103.086185    0.000272   1.909    0.00014    0.00010
       1773    42 -103.086442 -103.086309    0.000133   1.909    0.00013    0.00009
       1774    42 -103.086419 -103.086406    0.000013   1.909    0.00011    0.00008
       1775    42 -103.086401 -103.086462    0.000061   1.909    0.00010    0.00008
       1776    42 -103.086391 -103.086473    0.000082   1.909    0.00010    0.00009
       1777    42 -103.086384 -103.086458    0.000074   1.909    0.00010    0.00009
       1778    42 -103.086378 -103.086436    0.000058   1.909    0.00011    0.00008
       1779    42 -103.086373 -103.086418    0.000045   1.909    0.00011    0.00007
       1780    42 -103.086368 -103.086403    0.000035   1.909    0.00012    0.00006
       1781    42 -103.086362 -103.086386    0.000024   1.909    0.00012    0.00005
       1782    42 -103.086356 -103.086369    0.000012   1.909    0.00011    0.00006
       1783    42 -103.086351 -103.086351    0.000000   1.909    0.00011    0.00006
       1784    42 -103.086347 -103.086335    0.000013   1.909    0.00011    0.00006
       1785    41 -103.086345 -103.086320    0.000025   1.909    0.00011    0.00006
       1786    41 -103.086345 -103.086308    0.000037   1.909    0.00010    0.00006
       1787    42 -103.086346 -103.086296    0.000049   1.909    0.00010    0.00005
       1788    42 -103.086347 -103.086286    0.000061   1.909    0.00010    0.00005
       1789    42 -103.086350 -103.086278    0.000072   1.909    0.00010    0.00004
       1790    47 -103.086352 -103.086273    0.000079   1.909    0.00011    0.00003
       1791    47 -103.086353 -103.086269    0.000085   1.909    0.00011    0.00003
       1792    47 -103.086355 -103.086269    0.000086   1.909    0.00011    0.00003
       1793    54 -103.086355 -103.086269    0.000086   1.909    0.00011    0.00002
       1794    54 -103.086355 -103.086268    0.000087   1.909    0.00011    0.00002
       1795    53 -103.086354 -103.086265    0.000090   1.909    0.00011    0.00002
       1796    54 -103.086354 -103.086257    0.000097   1.909    0.00011    0.00003
       1797    48 -103.086353 -103.086246    0.000108   1.909    0.00010    0.00003
       1798    47 -103.086353 -103.086231    0.000122   1.909    0.00010    0.00003
       1799    48 -103.086353 -103.086215    0.000138   1.909    0.00010    0.00003

        ==> Orbital Optimization <==

            Orbital Optimization converged in   1 iterations 
            Total energy change: -6.708802e-09
            Final gradient norm: 4.995413e-05

       1800    47 -103.086355 -103.085849    0.000506   5.960    0.00010    0.00003
       1801    58 -103.086343 -103.087113    0.000770   5.960    0.00011    0.00014
       1802    48 -103.086335 -103.086933    0.000598   5.960    0.00011    0.00011
       1803    47 -103.086330 -103.086711    0.000382   5.960    0.00011    0.00009
       1804    47 -103.086326 -103.086502    0.000176   5.960    0.00011    0.00008
       1805    47 -103.086326 -103.086330    0.000005   5.960    0.00011    0.00007
       1806    48 -103.086328 -103.086200    0.000128   5.960    0.00011    0.00007
       1807    48 -103.086331 -103.086101    0.000230   5.960    0.00011    0.00007
       1808    53 -103.086336 -103.086027    0.000309   5.960    0.00011    0.00007
       1809    52 -103.086342 -103.085971    0.000370   5.960    0.00011    0.00007
       1810    53 -103.086347 -103.085930    0.000418   5.960    0.00011    0.00008
       1811    52 -103.086353 -103.085901    0.000452   5.960    0.00010    0.00008
       1812    48 -103.086358 -103.085886    0.000472   5.960    0.00010    0.00009
       1813    51 -103.086363 -103.085883    0.000480   5.960    0.00010    0.00009
       1814    47 -103.086367 -103.085896    0.000472   5.960    0.00010    0.00009
       1815    48 -103.086371 -103.085921    0.000451   5.960    0.00009    0.00008
       1816    48 -103.086375 -103.085958    0.000417   5.960    0.00009    0.00007
       1817    48 -103.086378 -103.086005    0.000373   5.960    0.00009    0.00006
       1818    52 -103.086381 -103.086060    0.000321   5.960    0.00009    0.00005
       1819    53 -103.086383 -103.086119    0.000263   5.960    0.00009    0.00004
       1820    54 -103.086383 -103.086182    0.000202   5.960    0.00009    0.00004
       1821    53 -103.086383 -103.086244    0.000139   5.960    0.00009    0.00004
       1822    54 -103.086382 -103.086305    0.000077   5.960    0.00009    0.00004

        ==> Orbital Optimization <==

            Orbital Optimization converged in   1 iterations 
            Total energy change: -2.017515e-09
            Final gradient norm: 2.853703e-05


      v2RDM iterations converged!

      v2RDM total spin [S(S+1)]:            -0.000007
    * v2RDM total energy:           -103.086382067146


 # Natural Orbital Occupation Numbers (alpha) #
 Irrep: 1
      1:  1.0000000
      2:  1.0000000
      3:  0.9979868
      4:  0.0000000
      5:  0.0000000
      6:  0.0000000
      7:  0.0000000

 Irrep: 2
      1:  0.0000000

 Irrep: 3
      1:  0.0042309
      2:  0.0000000
      3:  0.0000000

 Irrep: 4
      1:  0.0042306
      2:  0.0000000
      3:  0.0000000

 Irrep: 5
      1:  0.0000000

 Irrep: 6
      1:  1.0000000
      2:  1.0000000
      3:  0.0016935
      4:  0.0000000
      5:  0.0000000
      6:  0.0000000
      7:  0.0000000

 Irrep: 7
      1:  0.9959292
      2:  0.0000000
      3:  0.0000000

 Irrep: 8
      1:  0.9959289
      2:  0.0000000
      3:  0.0000000


 # Natural Orbital Occupation Numbers (beta) #
 Irrep: 1
      1:  1.0000000
      2:  1.0000000
      3:  0.9979870
      4:  0.0000000
      5:  0.0000000
      6:  0.0000000
      7:  0.0000000

 Irrep: 2
      1:  0.0000000

 Irrep: 3
      1:  0.0042310
      2:  0.0000000
      3:  0.0000000

 Irrep: 4
      1:  0.0042312
      2:  0.0000000
      3:  0.0000000

 Irrep: 5
      1:  0.0000000

 Irrep: 6
      1:  1.0000000
      2:  1.0000000
      3:  0.0016933
      4:  0.0000000
      5:  0.0000000
      6:  0.0000000
      7:  0.0000000

 Irrep: 7
      1:  0.9959286
      2:  0.0000000
      3:  0.0000000

 Irrep: 8
      1:  0.9959289
      2:  0.0000000
      3:  0.0000000


  ==> Iteration count <==

      Microiterations:                   83008
      Macroiterations:                    1823
      Orbital optimization steps:           15

  ==> Wall time <==

      Microiterations:                    3.92 s
      Macroiterations:                    1.22 s
      Orbital optimization:               1.09 s
      Total:                              6.38 s


*** tstop() called on ed4 at Tue Apr  5 16:25:06 2016
Module time:
	user time   =       6.38 seconds =       0.11 minutes
	system time =       0.04 seconds =       0.00 minutes
	total time  =          6 seconds =       0.10 minutes
Total time:
	user time   =       6.87 seconds =       0.11 minutes
	system time =       0.06 seconds =       0.00 minutes
	total time  =          7 seconds =       0.12 minutes
	SCF total energy..................................................PASSED
	v2RDM-CASSCF total energy.........................................PASSED

*** PSI4 exiting successfully. Buy a developer a beer!
