    -----------------------------------------------------------------------
          Psi4: An Open-Source Ab Initio Electronic Structure Package
                              Psi4 0.4.406 Driver

                          Git: Rev {master} 652792a dirty

    J. M. Turney, A. C. Simmonett, R. M. Parrish, E. G. Hohenstein,
    F. A. Evangelista, J. T. Fermann, B. J. Mintz, L. A. Burns, J. J. Wilke,
    M. L. Abrams, N. J. Russ, M. L. Leininger, C. L. Janssen, E. T. Seidl,
    W. D. Allen, H. F. Schaefer, R. A. King, E. F. Valeev, C. D. Sherrill,
    and T. D. Crawford, WIREs Comput. Mol. Sci. 2, 556-565 (2012)
    (doi: 10.1002/wcms.93)

                         Additional Contributions by
    A. E. DePrince, U. Bozkaya, A. Yu. Sokolov, D. G. A. Smith, R. Di Remigio,
    R. M. Richard, J. F. Gonthier, H. R. McAlexander, M. Saitow, and
    B. P. Pritchard
    -----------------------------------------------------------------------


    Psi4 started on: Mon May  9 10:06:37 2016

    Process ID:  49228
    PSI4DATADIR: /Users/deprince/psi4/install/debug/share/psi4
    Memory level set to 256.000 MB

  ==> Input File <==

--------------------------------------------------------------------------
#! cc-pvdz N2 (6,6) active space Test DQG

# job description:
print '        N2 / cc-pVDZ / DQG(6,6), scf_type = CD / 1e-12, rNN = 0.5 A'

sys.path.insert(0, '../../..')
import v2rdm_casscf

molecule n2 {
0 1
n
n 1 r
}

set {
  basis cc-pvdz
  scf_type cd
  cholesky_tolerance 1e-12
  d_convergence      1e-10
  maxiter 500
  restricted_docc [ 2, 0, 0, 0, 0, 2, 0, 0 ]
  active          [ 1, 0, 1, 1, 0, 1, 1, 1 ]
}
set v2rdm_casscf {
  positivity dqg
  r_convergence  1e-4
  e_convergence  1e-4
  maxiter 20000
  #orbopt_frequency 200
  #mu_update_frequency 200
}

activate(n2)

n2.r     = 0.5
refscf   = -103.04337420425350 # TEST
refv2rdm = -103.086382067146   # TEST

energy('v2rdm-casscf')

compare_values(refscf, get_variable("SCF TOTAL ENERGY"), 8, "SCF total energy") # TEST
compare_values(refv2rdm, get_variable("CURRENT ENERGY"), 4, "v2RDM-CASSCF total energy") # TEST

--------------------------------------------------------------------------
/Users/deprince/chem/v2rdm_casscf/v2rdm_casscf.so loaded.
Setting geometry variable r to 0.500000

*** tstart() called on wg-dhcp201d206d180.secure.wireless.fsu.
*** at Mon May  9 10:06:37 2016


         ---------------------------------------------------------
                                   SCF
            by Justin Turney, Rob Parrish, and Andy Simmonett
                              RHF Reference
                        1 Threads,    256 MiB Core
         ---------------------------------------------------------

  ==> Geometry <==

    Molecular point group: d2h
    Full point group: D_inf_h

    Geometry (in Angstrom), charge = 0, multiplicity = 1:

       Center              X                  Y                   Z               Mass       
    ------------   -----------------  -----------------  -----------------  -----------------
           N          0.000000000000     0.000000000000    -0.250000000000    14.003074004780
           N          0.000000000000     0.000000000000     0.250000000000    14.003074004780

  Running in d2h symmetry.

  Rotational constants: A = ************  B =      9.63082  C =      9.63082 [cm^-1]
  Rotational constants: A = ************  B = 288724.60708  C = 288724.60708 [MHz]
  Nuclear repulsion =   51.859366441819994

  Charge       = 0
  Multiplicity = 1
  Electrons    = 14
  Nalpha       = 7
  Nbeta        = 7

  ==> Algorithm <==

  SCF Algorithm Type is CD.
  DIIS enabled.
  MOM disabled.
  Fractional occupation disabled.
  Guess Type is CORE.
  Energy threshold   = 1.00e-08
  Density threshold  = 1.00e-10
  Integral threshold = 0.00e+00

  ==> Primary Basis <==

  Basis Set: CC-PVDZ
    Number of shells: 12
    Number of basis function: 28
    Number of Cartesian functions: 30
    Spherical Harmonics?: true
    Max angular momentum: 2

  ==> Pre-Iterations <==

   -------------------------------------------------------
    Irrep   Nso     Nmo     Nalpha   Nbeta   Ndocc  Nsocc
   -------------------------------------------------------
     Ag         7       7       0       0       0       0
     B1g        1       1       0       0       0       0
     B2g        3       3       0       0       0       0
     B3g        3       3       0       0       0       0
     Au         1       1       0       0       0       0
     B1u        7       7       0       0       0       0
     B2u        3       3       0       0       0       0
     B3u        3       3       0       0       0       0
   -------------------------------------------------------
    Total      28      28       7       7       7       0
   -------------------------------------------------------

  ==> Integral Setup <==

  ==> CDJK: Cholesky-decomposed J/K Matrices <==

    J tasked:                     Yes
    K tasked:                     Yes
    wK tasked:                     No
    OpenMP threads:                 1
    Integrals threads:              1
    Memory (MB):                  183
    Algorithm:                   Core
    Integral Cache:              SAVE
    Schwarz Cutoff:             1E-12
    Cholesky tolerance:      1.00E-12
    No. Cholesky vectors:         342

  Minimum eigenvalue in the overlap matrix is 1.5735752976E-04.
  Using Symmetric Orthogonalization.
  SCF Guess: Core (One-Electron) Hamiltonian.

  ==> Iterations <==

                        Total Energy        Delta E     RMS |[F,P]|

    Occupation by irrep:
             Ag   B1g   B2g   B3g    Au   B1u   B2u   B3u 
    DOCC [     3,    0,    0,    0,    0,    2,    1,    1 ]

   @RHF iter   1:   -88.54248632162336   -8.85425e+01   4.57822e-01 
   @RHF iter   2:   -97.65432344860073   -9.11184e+00   2.89351e-01 DIIS
   @RHF iter   3:  -103.02104353617742   -5.36672e+00   2.16155e-02 DIIS
   @RHF iter   4:  -103.04290174334801   -2.18582e-02   2.90864e-03 DIIS
   @RHF iter   5:  -103.04336662616782   -4.64883e-04   3.30426e-04 DIIS
   @RHF iter   6:  -103.04337393110868   -7.30494e-06   4.64105e-05 DIIS
   @RHF iter   7:  -103.04337419566036   -2.64552e-07   1.10338e-05 DIIS
   @RHF iter   8:  -103.04337420419273   -8.53237e-09   8.62477e-07 DIIS
   @RHF iter   9:  -103.04337420425296   -6.02256e-11   7.21357e-08 DIIS
   @RHF iter  10:  -103.04337420425344   -4.83169e-13   2.10812e-09 DIIS
   @RHF iter  11:  -103.04337420425341    2.84217e-14   4.13686e-10 DIIS
   @RHF iter  12:  -103.04337420425350   -8.52651e-14   2.77982e-11 DIIS

  ==> Post-Iterations <==

    Orbital Energies (a.u.)
    -----------------------

    Doubly Occupied:                                                      

       1Ag   -16.484161     1B1u  -15.785893     2Ag    -1.444309  
       1B3u   -1.176599     1B2u   -1.176599     2B1u   -0.543616  
       3Ag    -0.524272  

    Virtual:                                                              

       1B3g    0.538181     1B2g    0.538181     2B3u    0.594641  
       2B2u    0.594641     3B1u    0.614128     4Ag     0.726476  
       5Ag     1.055370     2B3g    1.450590     2B2g    1.450590  
       6Ag     1.682008     1B1g    1.682008     4B1u    1.789550  
       3B3u    2.801107     3B2u    2.801107     5B1u    2.816412  
       1Au     2.841104     6B1u    2.841104     7Ag     3.148621  
       3B3g    4.716074     3B2g    4.716074     7B1u   13.525785  

    Final Occupation by Irrep:
             Ag   B1g   B2g   B3g    Au   B1u   B2u   B3u 
    DOCC [     3,    0,    0,    0,    0,    2,    1,    1 ]

  Energy converged.

  @RHF Final Energy:  -103.04337420425350

   => Energetics <=

    Nuclear Repulsion Energy =             51.8593664418199936
    One-Electron Energy =                -235.5345802006834788
    Two-Electron Energy =                  80.6318395546100390
    DFT Exchange-Correlation Energy =       0.0000000000000000
    Empirical Dispersion Energy =           0.0000000000000000
    PCM Polarization Energy =               0.0000000000000000
    EFP Energy =                            0.0000000000000000
    Total Energy =                       -103.0433742042534533

    Alert: EFP and PCM quantities not currently incorporated into SCF psivars.
  Saving occupied orbitals to File 180.

*** tstop() called on wg-dhcp201d206d180.secure.wireless.fsu. at Mon May  9 10:06:39 2016
Module time:
	user time   =       1.34 seconds =       0.02 minutes
	system time =       0.01 seconds =       0.00 minutes
	total time  =          2 seconds =       0.03 minutes
Total time:
	user time   =       1.34 seconds =       0.02 minutes
	system time =       0.01 seconds =       0.00 minutes
	total time  =          2 seconds =       0.03 minutes


Properties will be evaluated at   0.000000,   0.000000,   0.000000 Bohr

Properties computed using the SCF density matrix

  Nuclear Dipole Moment: (a.u.)
     X:     0.0000      Y:     0.0000      Z:     0.0000

  Electronic Dipole Moment: (a.u.)
     X:     0.0000      Y:     0.0000      Z:     0.0000

  Dipole Moment: (a.u.)
     X:     0.0000      Y:     0.0000      Z:     0.0000     Total:     0.0000

  Dipole Moment: (Debye)
     X:     0.0000      Y:     0.0000      Z:     0.0000     Total:     0.0000


Reading options from the V2RDM_CASSCF block
Calling plugin v2rdm_casscf.so.



*** tstart() called on wg-dhcp201d206d180.secure.wireless.fsu.
*** at Mon May  9 10:06:39 2016



        ****************************************************
        *                                                  *
        *    v2RDM-CASSCF                                  *
        *                                                  *
        *    A variational 2-RDM-driven approach to the    *
        *    active space self-consistent field method     *
        *                                                  *
        ****************************************************


        The following papers should be cited when using v2RDM-CASSCF:

        J. Fosso-Tande, D. R. Nascimento, and A. E. DePrince III,
        Mol. Phys. 114, 423-430 (2015).

            URL: http://dx.doi.org/10.1080/00268976.2015.1078008

        J. Fosso-Tande, T.-S. Nguyen, G. Gidofalvi, and
        A. E. DePrince III, J. Chem. Theory Comput. accepted (2016).

            URL: http://dx.doi.org/10.1021/acs.jctc.6b00190



  ==> Convergence parameters <==

        r_convergence:                      1.000e-04
        e_convergence:                      1.000e-04
        cg_convergence:                     1.000e-05
        maxiter:                                20000
        cg_maxiter:                             10000

  ==> Active space details <==

        Number of frozen core orbitals:             0
        Number of restricted occupied orbitals:     4
        Number of active occupied orbitals:         3
        Number of active virtual orbitals:          3
        Number of restricted virtual orbitals:     18
        Number of frozen virtual orbitals:          0

        Irrep:             Ag, B1g, B2g, B3g,  Au, B1u, B2u, B3u 
 
        frozen_docc     [   0,   0,   0,   0,   0,   0,   0,   0 ]
        restricted_docc [   2,   0,   0,   0,   0,   2,   0,   0 ]
        active          [   1,   0,   1,   1,   0,   1,   1,   1 ]
        restricted_uocc [   4,   1,   2,   2,   1,   4,   2,   2 ]
        frozen_uocc     [   0,   0,   0,   0,   0,   0,   0,   0 ]

  ==> Orbital optimization parameters <==

        1-step algorithm:                       1
        g_convergence:                  1.000e-04
        e_convergence:                  1.000e-08
        maximum iterations:                    20
        frequency:                            500
        active-active rotations:                0
        exact diagonal Hessian:                 0
        number of DIIS vectors:                 0
        print iteration info:                   0

  ==> Memory requirements <==

        D2:                          0.00 mb
        Q2:                          0.00 mb
        G2:                          0.01 mb

        Total number of variables:           1668
        Total number of constraints:         1555
        Total memory requirements:        1.17 mb

    ==> Transform three-electron integrals <==


        Time for integral transformation:     0.08 s


    reference energy:        -103.043374204253
    frozen core energy:      -138.046901361522
    initial 2-RDM energy:     -79.844292581556

      oiter iiter        E(p)        E(d)      E gap)      mu     eps(p)     eps(d)
          0    83  -99.789681  112.331611  212.121292   1.000   61.72129   58.53278
          1    47  -86.903593 -337.360511  250.456918   1.000   10.10093   32.43936
          2    53 -110.794335 -153.258990   42.464655   1.000   14.02123    7.31087
          3    43  -98.695679 -129.172627   30.476947   1.000    7.64298    3.53558
          4    42 -102.993396 -112.122491    9.129095   1.000    6.51608    3.10899
          5    42  -98.350051 -103.304336    4.954285   1.000    3.28619    2.66022
          6    38 -100.607368  -97.969990    2.637378   1.000    2.58400    2.29893
          7    38  -99.579219  -96.751167    2.828052   1.000    1.22175    2.24650
          8    42 -100.876775  -98.606634    2.270141   1.000    0.81306    1.51248
          9    42 -100.679193  -99.339461    1.339732   1.000    0.61460    0.98014
         10    42 -101.154677  -99.949100    1.205576   1.000    0.30772    0.72158
         11    38 -101.120204 -100.117351    1.002852   1.000    0.21688    0.58604
         12    42 -101.385326  -99.929462    1.455864   1.000    0.23933    0.48367
         13    38 -101.496948  -99.859535    1.637413   1.000    0.21418    0.42927
         14    37 -101.694850  -99.982205    1.712645   1.000    0.20665    0.39177
         15    39 -101.800548 -100.320058    1.480489   1.000    0.18955    0.36380
         16    39 -101.917179 -100.569024    1.348155   1.000    0.14401    0.35295
         17    43 -101.991928 -100.717923    1.274006   1.000    0.13763    0.33509
         18    41 -102.079903 -100.702069    1.377834   1.000    0.13584    0.31893
         19    41 -102.158067 -100.773935    1.384132   1.000    0.13628    0.31162
         20    42 -102.234372 -100.911813    1.322559   1.000    0.14793    0.30550
         21    42 -102.300274 -101.003687    1.296587   1.000    0.14735    0.29742
         22    39 -102.364669 -101.038013    1.326656   1.000    0.13367    0.28813
         23    39 -102.430610 -101.066431    1.364178   1.000    0.10434    0.28214
         24    37 -102.487737 -101.156508    1.331229   1.000    0.09550    0.27185
         25    42 -102.531073 -101.384649    1.146425   1.000    0.13007    0.24244
         26    42 -102.571458 -101.752783    0.818675   1.000    0.13486    0.21308
         27    42 -102.601935 -102.046945    0.554990   1.000    0.11651    0.20340
         28    39 -102.618777 -102.246017    0.372761   1.000    0.10503    0.20073
         29    34 -102.627380 -102.353037    0.274343   1.000    0.09523    0.19114
         30    38 -102.640675 -102.303177    0.337498   1.000    0.09961    0.17390
         31    42 -102.655903 -102.182685    0.473218   1.000    0.11266    0.15337
         32    42 -102.672813 -102.118201    0.554612   1.000    0.11280    0.13988
         33    42 -102.692279 -102.084385    0.607894   1.000    0.08881    0.14235
         34    38 -102.717677 -102.076963    0.640714   1.000    0.05516    0.14731
         35    35 -102.746529 -102.078892    0.667637   1.000    0.03385    0.14740
         36    42 -102.773279 -102.138600    0.634679   1.000    0.04048    0.14266
         37    43 -102.793784 -102.210965    0.582819   1.000    0.05099    0.13647
         38    42 -102.804794 -102.254613    0.550181   1.000    0.05197    0.12851
         39    40 -102.815964 -102.291986    0.523978   1.000    0.04030    0.12537
         40    34 -102.827380 -102.286153    0.541227   1.000    0.03409    0.12485
         41    42 -102.836233 -102.302254    0.533979   1.000    0.04199    0.12013
         42    42 -102.844442 -102.338503    0.505939   1.000    0.03662    0.11749
         43    42 -102.854830 -102.317655    0.537175   1.000    0.03416    0.11645
         44    40 -102.868049 -102.268145    0.599905   1.000    0.03132    0.11559
         45    38 -102.883278 -102.242767    0.640510   1.000    0.02792    0.11513
         46    39 -102.900699 -102.247301    0.653398   1.000    0.02407    0.11504
         47    41 -102.917851 -102.281111    0.636740   1.000    0.02121    0.11492
         48    41 -102.932172 -102.336547    0.595625   1.000    0.01626    0.11476
         49    41 -102.944296 -102.377227    0.567068   1.000    0.01194    0.11463
         50    42 -102.955432 -102.388568    0.566863   1.000    0.01462    0.11430
         51    35 -102.966532 -102.371538    0.594994   1.000    0.01913    0.11384
         52    35 -102.978085 -102.340577    0.637508   1.000    0.02007    0.11355
         53    39 -102.990288 -102.307375    0.682912   1.000    0.01732    0.11359
         54    39 -103.002667 -102.288882    0.713785   1.000    0.01335    0.11375
         55    38 -103.015840 -102.273368    0.742473   1.000    0.00946    0.11386
         56    35 -103.027388 -102.279796    0.747592   1.000    0.00962    0.11321
         57    38 -103.039445 -102.288903    0.750542   1.000    0.05392    0.10649
         58    38 -103.058654 -102.448415    0.610239   1.000    0.06262    0.09694
         59    35 -103.065243 -102.614373    0.450870   1.000    0.07289    0.07913
         60    41 -103.073080 -102.858909    0.214171   1.000    0.09894    0.03635
         61    47 -103.079132 -103.180692    0.101559   1.000    0.07509    0.03172
         62    42 -103.062315 -103.386823    0.324508   1.000    0.03454    0.04463
         63    38 -103.046504 -103.400270    0.353766   1.000    0.02455    0.03495
         64    42 -103.034797 -103.279296    0.244499   1.000    0.04196    0.02243
         65    42 -103.030300 -103.098393    0.068094   1.000    0.04572    0.01432
         66    47 -103.034609 -102.941848    0.092761   1.000    0.03387    0.01341
         67    43 -103.042281 -102.870585    0.171696   1.000    0.01814    0.01792
         68    38 -103.044985 -102.910807    0.134178   1.000    0.01417    0.01484
         69    39 -103.058013 -102.953863    0.104150   1.000    0.02028    0.01053
         70    42 -103.058184 -103.035853    0.022331   1.000    0.02181    0.00456
         71    48 -103.054343 -103.101740    0.047396   1.000    0.01678    0.00553
         72    41 -103.050508 -103.129461    0.078953   1.000    0.01053    0.00811
         73    38 -103.046643 -103.120945    0.074302   1.000    0.01082    0.00774
         74    43 -103.041801 -103.095073    0.053272   1.000    0.01379    0.00523
         75    43 -103.041422 -103.057085    0.015663   1.000    0.01433    0.00296
         76    43 -103.043024 -103.028319    0.014706   1.000    0.01304    0.00324
         77    42 -103.045297 -103.013618    0.031679   1.000    0.00995    0.00418
         78    39 -103.047821 -103.010939    0.036882   1.000    0.00869    0.00423
         79    37 -103.049368 -103.022498    0.026870   1.000    0.00891    0.00334
         80    42 -103.050041 -103.039651    0.010390   1.000    0.00919    0.00233
         81    43 -103.049517 -103.056666    0.007149   1.000    0.00868    0.00224
         82    41 -103.048374 -103.067274    0.018899   1.000    0.00809    0.00270
         83    42 -103.047033 -103.069715    0.022681   1.000    0.00812    0.00280
         84    41 -103.046039 -103.064526    0.018488   1.000    0.00862    0.00242
         85    43 -103.045632 -103.055208    0.009576   1.000    0.00887    0.00194
         86    42 -103.047760 -103.045544    0.002216   1.000    0.00797    0.00192
         87    43 -103.048663 -103.040111    0.008552   1.000    0.00723    0.00192
         88    43 -103.051194 -103.038827    0.012367   1.000    0.00640    0.00216
         89    43 -103.050093 -103.043132    0.006960   1.000    0.00591    0.00190
         90    42 -103.051508 -103.047796    0.003712   1.000    0.00535    0.00174
         91    48 -103.050312 -103.053127    0.002814   1.000    0.00500    0.00169
         92    43 -103.050803 -103.055316    0.004513   1.000    0.00505    0.00158
         93    43 -103.050378 -103.055365    0.004987   1.000    0.00511    0.00149
         94    43 -103.050597 -103.053115    0.002518   1.000    0.00540    0.00136
         95    47 -103.050432 -103.050147    0.000285   1.000    0.00538    0.00122
         96    49 -103.050503 -103.047103    0.003401   1.000    0.00529    0.00116
         97    49 -103.050448 -103.044964    0.005484   1.000    0.00505    0.00116
         98    50 -103.050487 -103.043990    0.006497   1.000    0.00484    0.00116
         99    48 -103.050472 -103.044298    0.006174   1.000    0.00469    0.00111
        100    48 -103.050487 -103.045568    0.004918   1.000    0.00459    0.00105
        101    48 -103.050461 -103.047493    0.002968   1.000    0.00439    0.00120
        102    50 -103.050333 -103.050560    0.000227   1.000    0.00424    0.00109
        103    49 -103.050185 -103.051712    0.001527   1.000    0.00402    0.00108
        104    49 -103.050144 -103.052621    0.002477   1.000    0.00403    0.00101
        105    49 -103.050086 -103.051824    0.001739   1.000    0.00411    0.00094
        106    48 -103.050052 -103.050348    0.000296   1.000    0.00419    0.00086
        107    50 -103.050029 -103.048294    0.001735   1.000    0.00418    0.00081
        108    50 -103.050038 -103.046583    0.003455   1.000    0.00410    0.00080
        109    50 -103.050053 -103.045496    0.004556   1.000    0.00398    0.00081
        110    49 -103.050070 -103.045288    0.004782   1.000    0.00388    0.00080
        111    50 -103.050070 -103.045788    0.004282   1.000    0.00381    0.00077
        112    50 -103.050070 -103.046762    0.003308   1.000    0.00378    0.00073
        113    50 -103.050056 -103.047872    0.002184   1.000    0.00375    0.00071
        114    50 -103.050037 -103.048834    0.001203   1.000    0.00374    0.00070
        115    49 -103.050015 -103.049439    0.000577   1.000    0.00373    0.00070
        116    50 -103.049990 -103.049596    0.000394   1.000    0.00374    0.00069
        117    50 -103.049967 -103.049333    0.000634   1.000    0.00374    0.00067
        118    50 -103.049947 -103.048777    0.001170   1.000    0.00374    0.00065
        119    50 -103.049935 -103.048105    0.001831   1.000    0.00372    0.00063
        120    50 -103.049926 -103.047496    0.002429   1.000    0.00362    0.00084
        121    49 -103.049890 -103.047729    0.002161   1.000    0.00353    0.00069
        122    50 -103.049890 -103.047971    0.001919   1.000    0.00348    0.00063
        123    48 -103.049862 -103.048321    0.001540   1.000    0.00347    0.00059
        124    50 -103.049844 -103.048396    0.001449   1.000    0.00347    0.00064
        125    49 -103.049863 -103.048513    0.001349   1.000    0.00351    0.00065
        126    50 -103.049878 -103.048534    0.001344   1.000    0.00352    0.00058
        127    54 -103.049860 -103.048275    0.001584   1.000    0.00351    0.00055
        128    56 -103.049834 -103.047952    0.001882   1.000    0.00348    0.00054
        129    53 -103.049820 -103.047639    0.002181   1.000    0.00345    0.00053
        130    55 -103.049807 -103.047482    0.002325   1.000    0.00338    0.00064
        131    48 -103.049810 -103.047936    0.001874   1.000    0.00337    0.00055
        132    48 -103.049799 -103.048261    0.001537   1.000    0.00332    0.00052
        133    50 -103.049575 -103.048404    0.001171   1.000    0.00309    0.00066
        134    49 -103.049631 -103.048544    0.001087   1.000    0.00307    0.00056
        135    50 -103.049459 -103.048492    0.000968   1.000    0.00293    0.00057
        136    49 -103.049522 -103.048510    0.001012   1.000    0.00295    0.00051
        137    56 -103.049461 -103.048304    0.001157   1.000    0.00291    0.00048
        138    50 -103.049478 -103.048063    0.001415   1.000    0.00292    0.00046
        139    56 -103.049452 -103.047683    0.001769   1.000    0.00290    0.00046
        140    56 -103.049457 -103.047414    0.002043   1.000    0.00286    0.00057
        141    48 -103.049415 -103.047538    0.001877   1.000    0.00277    0.00058
        142    48 -103.049392 -103.048067    0.001325   1.000    0.00272    0.00051
        143    53 -103.049391 -103.048545    0.000846   1.000    0.00271    0.00045
        144    50 -103.049371 -103.048769    0.000603   1.000    0.00272    0.00043
        145    50 -103.049350 -103.048560    0.000790   1.000    0.00274    0.00043
        146    55 -103.049252 -103.048122    0.001129   1.000    0.00267    0.00059
        147    50 -103.049270 -103.048263    0.001006   1.000    0.00265    0.00056
        148    49 -103.049245 -103.048407    0.000838   1.000    0.00264    0.00047
        149    50 -103.049182 -103.048643    0.000539   1.000    0.00258    0.00056
        150    50 -103.049135 -103.049079    0.000056   1.000    0.00253    0.00059
        151    48 -103.049088 -103.049291    0.000203   1.000    0.00252    0.00050
        152    50 -103.049056 -103.049225    0.000169   1.000    0.00252    0.00040
        153    54 -103.049034 -103.048847    0.000186   1.000    0.00253    0.00039
        154    53 -103.049023 -103.048278    0.000746   1.000    0.00253    0.00039
        155    55 -103.049024 -103.047600    0.001424   1.000    0.00252    0.00036
        156    53 -103.049031 -103.046981    0.002050   1.000    0.00250    0.00035
        157    54 -103.049042 -103.046531    0.002511   1.000    0.00247    0.00036
        158    56 -103.049056 -103.046342    0.002715   1.000    0.00245    0.00036
        159    54 -103.049068 -103.046423    0.002644   1.000    0.00243    0.00035
        160    53 -103.049076 -103.046728    0.002348   1.000    0.00241    0.00035
        161    54 -103.049086 -103.047199    0.001887   1.000    0.00240    0.00040
        162    49 -103.049129 -103.047868    0.001261   1.000    0.00240    0.00035
        163    50 -103.049092 -103.048246    0.000846   1.000    0.00239    0.00033
        164    50 -103.049080 -103.048530    0.000550   1.000    0.00239    0.00033
        165    50 -103.049044 -103.048610    0.000434   1.000    0.00238    0.00033
        166    49 -103.049026 -103.048540    0.000485   1.000    0.00237    0.00032
        167    50 -103.049002 -103.048330    0.000672   1.000    0.00237    0.00031
        168    50 -103.048991 -103.048032    0.000959   1.000    0.00236    0.00030
        169    49 -103.048983 -103.047692    0.001291   1.000    0.00236    0.00030
        170    50 -103.048983 -103.047375    0.001609   1.000    0.00235    0.00029
        171    50 -103.048986 -103.047130    0.001856   1.000    0.00234    0.00029
        172    50 -103.048991 -103.046988    0.002003   1.000    0.00231    0.00038
        173    48 -103.049017 -103.047126    0.001892   1.000    0.00229    0.00039
        174    50 -103.049034 -103.047402    0.001631   1.000    0.00228    0.00031
        175    54 -103.049031 -103.047663    0.001368   1.000    0.00228    0.00029
        176    50 -103.049022 -103.047864    0.001158   1.000    0.00225    0.00047
        177    48 -103.049053 -103.048319    0.000733   1.000    0.00224    0.00040
        178    50 -103.049052 -103.048648    0.000405   1.000    0.00222    0.00041
        179    48 -103.049069 -103.049076    0.000008   1.000    0.00222    0.00043
        180    48 -103.049071 -103.049360    0.000289   1.000    0.00225    0.00038
        181    49 -103.049047 -103.049308    0.000261   1.000    0.00229    0.00034
        182    49 -103.049033 -103.049048    0.000014   1.000    0.00231    0.00031
        183    56 -103.049010 -103.048570    0.000441   1.000    0.00233    0.00027
        184    56 -103.048995 -103.047982    0.001012   1.000    0.00233    0.00025
        185    56 -103.048988 -103.047361    0.001627   1.000    0.00231    0.00024
        186    56 -103.048990 -103.046813    0.002177   1.000    0.00228    0.00025
        187    54 -103.049000 -103.046412    0.002588   1.000    0.00225    0.00026
        188    55 -103.049017 -103.046214    0.002803   1.000    0.00222    0.00027
        189    55 -103.049033 -103.046227    0.002806   1.000    0.00219    0.00027
        190    54 -103.049045 -103.046423    0.002622   1.000    0.00217    0.00026
        191    54 -103.049043 -103.046749    0.002294   1.000    0.00215    0.00025
        192    54 -103.049007 -103.047201    0.001806   1.000    0.00213    0.00032
        193    50 -103.049013 -103.047922    0.001091   1.000    0.00213    0.00031
        194    50 -103.048991 -103.048395    0.000595   1.000    0.00215    0.00026
        195    54 -103.048983 -103.048667    0.000316   1.000    0.00217    0.00028
        196    54 -103.048962 -103.048707    0.000256   1.000    0.00215    0.00044
        197    48 -103.048932 -103.048897    0.000034   1.000    0.00212    0.00042
        198    48 -103.048897 -103.049043    0.000147   1.000    0.00212    0.00040
        199    49 -103.048859 -103.049153    0.000294   1.000    0.00213    0.00035
        200    49 -103.048821 -103.049036    0.000214   1.000    0.00215    0.00029
        201    49 -103.048799 -103.048664    0.000135   1.000    0.00218    0.00024
        202    55 -103.048786 -103.048080    0.000706   1.000    0.00220    0.00022
        203    55 -103.048792 -103.047409    0.001383   1.000    0.00220    0.00022
        204    56 -103.048807 -103.046775    0.002032   1.000    0.00219    0.00023
        205    56 -103.048831 -103.046289    0.002542   1.000    0.00216    0.00024
        206    56 -103.048856 -103.046009    0.002846   1.000    0.00212    0.00025
        207    54 -103.048877 -103.045954    0.002923   1.000    0.00209    0.00025
        208    54 -103.048887 -103.046103    0.002784   1.000    0.00204    0.00034
        209    48 -103.048874 -103.046786    0.002088   1.000    0.00205    0.00026
        210    54 -103.048894 -103.047221    0.001673   1.000    0.00207    0.00023
        211    56 -103.048887 -103.047682    0.001205   1.000    0.00207    0.00021
        212    56 -103.048867 -103.047985    0.000882   1.000    0.00206    0.00021
        213    56 -103.048832 -103.048238    0.000594   1.000    0.00205    0.00022
        214    54 -103.048816 -103.048421    0.000395   1.000    0.00205    0.00022
        215    56 -103.048802 -103.048502    0.000300   1.000    0.00207    0.00022
        216    55 -103.048798 -103.048444    0.000354   1.000    0.00211    0.00022
        217    56 -103.048792 -103.048259    0.000533   1.000    0.00214    0.00020
        218    56 -103.048788 -103.047976    0.000812   1.000    0.00216    0.00019
        219    56 -103.048786 -103.047653    0.001132   1.000    0.00216    0.00017
        220    56 -103.048781 -103.047338    0.001444   1.000    0.00215    0.00017
        221    56 -103.048781 -103.047060    0.001721   1.000    0.00214    0.00017
        222    56 -103.048780 -103.046838    0.001942   1.000    0.00212    0.00018
        223    56 -103.048781 -103.046683    0.002099   1.000    0.00209    0.00019
        224    56 -103.048786 -103.046606    0.002180   1.000    0.00207    0.00019
        225    56 -103.048787 -103.046617    0.002171   1.000    0.00205    0.00019
        226    56 -103.048792 -103.046713    0.002079   1.000    0.00203    0.00018
        227    55 -103.048795 -103.046884    0.001911   1.000    0.00202    0.00018
        228    56 -103.048794 -103.047101    0.001692   1.000    0.00201    0.00017
        229    56 -103.048793 -103.047334    0.001459   1.000    0.00201    0.00017
        230    56 -103.048787 -103.047551    0.001236   1.000    0.00201    0.00017
        231    56 -103.048782 -103.047727    0.001055   1.000    0.00201    0.00017
        232    56 -103.048773 -103.047844    0.000930   1.000    0.00202    0.00017
        233    56 -103.048766 -103.047895    0.000871   1.000    0.00203    0.00017
        234    56 -103.048756 -103.047881    0.000875   1.000    0.00204    0.00017
        235    56 -103.048748 -103.047808    0.000940   1.000    0.00205    0.00017
        236    56 -103.048739 -103.047689    0.001050   1.000    0.00205    0.00016
        237    56 -103.048734 -103.047540    0.001194   1.000    0.00206    0.00016
        238    56 -103.048730 -103.047377    0.001352   1.000    0.00205    0.00016
        239    56 -103.048730 -103.047220    0.001510   1.000    0.00205    0.00016
        240    56 -103.048727 -103.047086    0.001640   1.000    0.00204    0.00016
        241    56 -103.048730 -103.046986    0.001744   1.000    0.00203    0.00016
        242    56 -103.048728 -103.046931    0.001797   1.000    0.00202    0.00016
        243    56 -103.048733 -103.046922    0.001811   1.000    0.00200    0.00016
        244    56 -103.048732 -103.046957    0.001775   1.000    0.00199    0.00016
        245    56 -103.048734 -103.047030    0.001704   1.000    0.00198    0.00016
        246    56 -103.048732 -103.047127    0.001604   1.000    0.00198    0.00015
        247    56 -103.048729 -103.047238    0.001491   1.000    0.00197    0.00015
        248    55 -103.048727 -103.047346    0.001381   1.000    0.00197    0.00015
        249    56 -103.048721 -103.047441    0.001280   1.000    0.00197    0.00015
        250    56 -103.048716 -103.047512    0.001204   1.000    0.00197    0.00015
        251    56 -103.048709 -103.047553    0.001156   1.000    0.00198    0.00015
        252    56 -103.048705 -103.047560    0.001145   1.000    0.00198    0.00015
        253    56 -103.048697 -103.047537    0.001160   1.000    0.00198    0.00015
        254    56 -103.048694 -103.047486    0.001208   1.000    0.00199    0.00015
        255    56 -103.048689 -103.047417    0.001272   1.000    0.00197    0.00022
        256    54 -103.048703 -103.047471    0.001232   1.000    0.00197    0.00017
        257    54 -103.048699 -103.047454    0.001245   1.000    0.00197    0.00015
        258    56 -103.048693 -103.047416    0.001278   1.000    0.00197    0.00015
        259    56 -103.048686 -103.047361    0.001325   1.000    0.00197    0.00014
        260    56 -103.048689 -103.047300    0.001390   1.000    0.00198    0.00014
        261    56 -103.048685 -103.047237    0.001448   1.000    0.00197    0.00014
        262    56 -103.048684 -103.047181    0.001503   1.000    0.00195    0.00028
        263    54 -103.048682 -103.047349    0.001333   1.000    0.00191    0.00020
        264    54 -103.048673 -103.047363    0.001310   1.000    0.00190    0.00016
        265    56 -103.048661 -103.047431    0.001230   1.000    0.00190    0.00015
        266    56 -103.048657 -103.047415    0.001242   1.000    0.00191    0.00014
        267    60 -103.048655 -103.047390    0.001266   1.000    0.00192    0.00014
        268    61 -103.048656 -103.047326    0.001330   1.000    0.00193    0.00014
        269    56 -103.048656 -103.047274    0.001382   1.000    0.00193    0.00014
        270    61 -103.048656 -103.047234    0.001422   1.000    0.00193    0.00013
        271    60 -103.048651 -103.047211    0.001440   1.000    0.00192    0.00013
        272    60 -103.048646 -103.047196    0.001450   1.000    0.00191    0.00013
        273    56 -103.048641 -103.047179    0.001462   1.000    0.00190    0.00013
        274    60 -103.048639 -103.047159    0.001480   1.000    0.00190    0.00013
        275    60 -103.048634 -103.047134    0.001501   1.000    0.00190    0.00013
        276    61 -103.048636 -103.047116    0.001520   1.000    0.00189    0.00013
        277    61 -103.048634 -103.047111    0.001523   1.000    0.00189    0.00013
        278    60 -103.048635 -103.047122    0.001513   1.000    0.00188    0.00023
        279    54 -103.048628 -103.047284    0.001343   1.000    0.00186    0.00016
        280    60 -103.048620 -103.047375    0.001245   1.000    0.00186    0.00014
        281    61 -103.048612 -103.047444    0.001168   1.000    0.00187    0.00013
        282    60 -103.048603 -103.047453    0.001150   1.000    0.00186    0.00017
        283    56 -103.048597 -103.047507    0.001090   1.000    0.00186    0.00019
        284    55 -103.048586 -103.047608    0.000978   1.000    0.00185    0.00016
        285    56 -103.048574 -103.047627    0.000948   1.000    0.00186    0.00014
        286    56 -103.048565 -103.047612    0.000953   1.000    0.00187    0.00013
        287    56 -103.048446 -103.047529    0.000917   1.000    0.00166    0.00040
        288    48 -103.048475 -103.047783    0.000692   1.000    0.00169    0.00024
        289    48 -103.048443 -103.047833    0.000610   1.000    0.00168    0.00019
        290    55 -103.048440 -103.047923    0.000516   1.000    0.00170    0.00017
        291    56 -103.048419 -103.047875    0.000544   1.000    0.00171    0.00014
        292    56 -103.048337 -103.047758    0.000580   1.000    0.00163    0.00022
        293    55 -103.048342 -103.047643    0.000699   1.000    0.00162    0.00016
        294    56 -103.048328 -103.047435    0.000893   1.000    0.00162    0.00013
        295    60 -103.048340 -103.047256    0.001084   1.000    0.00162    0.00012
        296    61 -103.048340 -103.047076    0.001264   1.000    0.00162    0.00011
        297    61 -103.048344 -103.046932    0.001412   1.000    0.00162    0.00011
        298    61 -103.048344 -103.046820    0.001523   1.000    0.00160    0.00012
        299    61 -103.048347 -103.046754    0.001593   1.000    0.00159    0.00012
        300    60 -103.048348 -103.046728    0.001620   1.000    0.00158    0.00012
        301    60 -103.048352 -103.046738    0.001614   1.000    0.00158    0.00012
        302    56 -103.048316 -103.046786    0.001529   1.000    0.00153    0.00026
        303    54 -103.048339 -103.047183    0.001156   1.000    0.00151    0.00025
        304    54 -103.048318 -103.047482    0.000836   1.000    0.00151    0.00020
        305    56 -103.048306 -103.047709    0.000597   1.000    0.00153    0.00015
        306    60 -103.048281 -103.047741    0.000540   1.000    0.00153    0.00013
        307    61 -103.048271 -103.047681    0.000590   1.000    0.00154    0.00014
        308    56 -103.048265 -103.047592    0.000672   1.000    0.00153    0.00015
        309    56 -103.048263 -103.047546    0.000717   1.000    0.00153    0.00015
        310    56 -103.048263 -103.047532    0.000732   1.000    0.00154    0.00013
        311    60 -103.048257 -103.047519    0.000737   1.000    0.00154    0.00012
        312    61 -103.048250 -103.047464    0.000786   1.000    0.00155    0.00011
        313    61 -103.048239 -103.047357    0.000882   1.000    0.00155    0.00011
        314    62 -103.048233 -103.047207    0.001026   1.000    0.00154    0.00011
        315    62 -103.048227 -103.047043    0.001184   1.000    0.00154    0.00011
        316    62 -103.048227 -103.046891    0.001336   1.000    0.00153    0.00011
        317    61 -103.048229 -103.046776    0.001453   1.000    0.00152    0.00011
        318    61 -103.048236 -103.046708    0.001528   1.000    0.00151    0.00011
        319    61 -103.048242 -103.046693    0.001549   1.000    0.00150    0.00011
        320    61 -103.048249 -103.046728    0.001521   1.000    0.00150    0.00011
        321    61 -103.048253 -103.046806    0.001447   1.000    0.00149    0.00010
        322    61 -103.048256 -103.046913    0.001343   1.000    0.00148    0.00010
        323    61 -103.048254 -103.047034    0.001221   1.000    0.00148    0.00010
        324    61 -103.048251 -103.047153    0.001099   1.000    0.00148    0.00010
        325    61 -103.048243 -103.047258    0.000985   1.000    0.00148    0.00010
        326    61 -103.048238 -103.047340    0.000899   1.000    0.00148    0.00010
        327    62 -103.048230 -103.047397    0.000833   1.000    0.00148    0.00010
        328    62 -103.048223 -103.047427    0.000796   1.000    0.00148    0.00010
        329    62 -103.048215 -103.047431    0.000784   1.000    0.00148    0.00010
        330    61 -103.048208 -103.047411    0.000796   1.000    0.00148    0.00010
        331    61 -103.048204 -103.047370    0.000834   1.000    0.00149    0.00010
        332    61 -103.048195 -103.047312    0.000883   1.000    0.00149    0.00010
        333    62 -103.048195 -103.047240    0.000955   1.000    0.00149    0.00009
        334    62 -103.048187 -103.047162    0.001025   1.000    0.00148    0.00010
        335    62 -103.048157 -103.047132    0.001024   1.000    0.00145    0.00021
        336    56 -103.048170 -103.047322    0.000848   1.000    0.00144    0.00019
        337    56 -103.048144 -103.047363    0.000782   1.000    0.00144    0.00014
        338    61 -103.048117 -103.047366    0.000752   1.000    0.00141    0.00013
        339    61 -103.048110 -103.047265    0.000845   1.000    0.00143    0.00011
        340    61 -103.048110 -103.047119    0.000991   1.000    0.00141    0.00011
        341    61 -103.048114 -103.047030    0.001085   1.000    0.00141    0.00010
        342    61 -103.048117 -103.047012    0.001104   1.000    0.00140    0.00010
        343    61 -103.048118 -103.047042    0.001076   1.000    0.00140    0.00010
        344    61 -103.048114 -103.047073    0.001041   1.000    0.00140    0.00009
        345    61 -103.048112 -103.047083    0.001029   1.000    0.00140    0.00009
        346    61 -103.048107 -103.047073    0.001034   1.000    0.00139    0.00009
        347    61 -103.048103 -103.047056    0.001047   1.000    0.00138    0.00011
        348    61 -103.048100 -103.047079    0.001021   1.000    0.00138    0.00026
        349    49 -103.048106 -103.047269    0.000838   1.000    0.00137    0.00019
        350    56 -103.048100 -103.047390    0.000710   1.000    0.00138    0.00015
        351    61 -103.048092 -103.047511    0.000581   1.000    0.00137    0.00023
        352    55 -103.048096 -103.047642    0.000454   1.000    0.00136    0.00025
        353    49 -103.048080 -103.047704    0.000376   1.000    0.00134    0.00019
        354    56 -103.048063 -103.047760    0.000303   1.000    0.00134    0.00016
        355    55 -103.048048 -103.047830    0.000218   1.000    0.00135    0.00013
        356    61 -103.048034 -103.047829    0.000204   1.000    0.00136    0.00013
        357    61 -103.048023 -103.047739    0.000285   1.000    0.00137    0.00012
        358    61 -103.048010 -103.047569    0.000441   1.000    0.00138    0.00011
        359    62 -103.047990 -103.047359    0.000630   1.000    0.00135    0.00009
        360    62 -103.047975 -103.047161    0.000814   1.000    0.00133    0.00008
        361    62 -103.047972 -103.046961    0.001011   1.000    0.00133    0.00008
        362    62 -103.047975 -103.046765    0.001210   1.000    0.00132    0.00009
        363    62 -103.047981 -103.046614    0.001368   1.000    0.00131    0.00009
        364    61 -103.047990 -103.046518    0.001472   1.000    0.00130    0.00010
        365    61 -103.048000 -103.046486    0.001514   1.000    0.00129    0.00010
        366    61 -103.048010 -103.046509    0.001501   1.000    0.00128    0.00010
        367    61 -103.048016 -103.046577    0.001438   1.000    0.00128    0.00009
        368    61 -103.048022 -103.046679    0.001343   1.000    0.00127    0.00009
        369    62 -103.048021 -103.046805    0.001216   1.000    0.00126    0.00008
        370    62 -103.048020 -103.046941    0.001079   1.000    0.00126    0.00008
        371    61 -103.048014 -103.047080    0.000934   1.000    0.00125    0.00007
        372    62 -103.048010 -103.047210    0.000800   1.000    0.00125    0.00008
        373    61 -103.048002 -103.047323    0.000679   1.000    0.00125    0.00008
        374    62 -103.047993 -103.047413    0.000580   1.000    0.00125    0.00008
        375    62 -103.047985 -103.047474    0.000510   1.000    0.00125    0.00009
        376    61 -103.047977 -103.047504    0.000473   1.000    0.00126    0.00009
        377    61 -103.047968 -103.047503    0.000465   1.000    0.00126    0.00009
        378    61 -103.047958 -103.047470    0.000489   1.000    0.00126    0.00009
        379    61 -103.047954 -103.047408    0.000545   1.000    0.00127    0.00008
        380    61 -103.047945 -103.047327    0.000618   1.000    0.00127    0.00008
        381    61 -103.047941 -103.047229    0.000712   1.000    0.00127    0.00007
        382    62 -103.047939 -103.047135    0.000804   1.000    0.00126    0.00014
        383    59 -103.047978 -103.047132    0.000846   1.000    0.00130    0.00010
        384    61 -103.047966 -103.046984    0.000983   1.000    0.00129    0.00008
        385    62 -103.047965 -103.046932    0.001033   1.000    0.00129    0.00008
        386    62 -103.047959 -103.046867    0.001092   1.000    0.00127    0.00007
        387    62 -103.047962 -103.046857    0.001105   1.000    0.00127    0.00007
        388    62 -103.047963 -103.046847    0.001116   1.000    0.00126    0.00007
        389    62 -103.047964 -103.046858    0.001105   1.000    0.00126    0.00007
        390    61 -103.047962 -103.046872    0.001090   1.000    0.00125    0.00007
        391    62 -103.047960 -103.046899    0.001061   1.000    0.00124    0.00007
        392    62 -103.047958 -103.046932    0.001026   1.000    0.00124    0.00007
        393    62 -103.047958 -103.046975    0.000982   1.000    0.00124    0.00007
        394    62 -103.047957 -103.047022    0.000934   1.000    0.00123    0.00007
        395    62 -103.047955 -103.047071    0.000884   1.000    0.00123    0.00007
        396    62 -103.047953 -103.047117    0.000836   1.000    0.00123    0.00007
        397    62 -103.047950 -103.047157    0.000793   1.000    0.00123    0.00007
        398    62 -103.047946 -103.047187    0.000758   1.000    0.00123    0.00014
        399    60 -103.047951 -103.047285    0.000666   1.000    0.00123    0.00008
        400    61 -103.047939 -103.047270    0.000669   1.000    0.00124    0.00008
        401    62 -103.047936 -103.047283    0.000653   1.000    0.00124    0.00007
        402    61 -103.047930 -103.047268    0.000662   1.000    0.00124    0.00007
        403    62 -103.047926 -103.047251    0.000675   1.000    0.00124    0.00007
        404    62 -103.047920 -103.047213    0.000707   1.000    0.00124    0.00007
        405    62 -103.047916 -103.047165    0.000750   1.000    0.00125    0.00006
        406    61 -103.047904 -103.047103    0.000801   1.000    0.00123    0.00007
        407    62 -103.047893 -103.047048    0.000845   1.000    0.00122    0.00007
        408    62 -103.047892 -103.046988    0.000904   1.000    0.00122    0.00006
        409    61 -103.047881 -103.046912    0.000969   1.000    0.00120    0.00007
        410    60 -103.047766 -103.046872    0.000894   1.000    0.00103    0.00019
        411    48 -103.047823 -103.046994    0.000829   1.000    0.00105    0.00012
        412    60 -103.047790 -103.046974    0.000816   1.000    0.00103    0.00008
        413    60 -103.047814 -103.047035    0.000779   1.000    0.00105    0.00008
        414    61 -103.047802 -103.047047    0.000755   1.000    0.00104    0.00007
        415    61 -103.047805 -103.047089    0.000716   1.000    0.00104    0.00006
        416    61 -103.047797 -103.047114    0.000683   1.000    0.00104    0.00006
        417    62 -103.047793 -103.047146    0.000647   1.000    0.00104    0.00006
        418    62 -103.047787 -103.047159    0.000628   1.000    0.00104    0.00006
        419    61 -103.047782 -103.047158    0.000624   1.000    0.00104    0.00006
        420    62 -103.047763 -103.047138    0.000625   1.000    0.00102    0.00008
        421    59 -103.047767 -103.047160    0.000607   1.000    0.00102    0.00012
        422    59 -103.047792 -103.047189    0.000603   1.000    0.00104    0.00009
        423    61 -103.047782 -103.047096    0.000686   1.000    0.00103    0.00007
        424    61 -103.047779 -103.047071    0.000707   1.000    0.00103    0.00007
        425    61 -103.047773 -103.047046    0.000727   1.000    0.00102    0.00006
        426    62 -103.047726 -103.047055    0.000670   1.000    0.00100    0.00014
        427    59 -103.047669 -103.047144    0.000526   1.000    0.00090    0.00031
        428    43 -103.047678 -103.047417    0.000261   1.000    0.00088    0.00023
        429    48 -103.047650 -103.047500    0.000150   1.000    0.00086    0.00019
        430    48 -103.047638 -103.047604    0.000034   1.000    0.00084    0.00028
        431    42 -103.047609 -103.047755    0.000146   1.000    0.00083    0.00019
        432    48 -103.047586 -103.047880    0.000294   1.000    0.00082    0.00018
        433    53 -103.047556 -103.047966    0.000411   1.000    0.00081    0.00018
        434    48 -103.047535 -103.047967    0.000433   1.000    0.00082    0.00018
        435    48 -103.047512 -103.047853    0.000341   1.000    0.00083    0.00015
        436    53 -103.047502 -103.047669    0.000167   1.000    0.00084    0.00012
        437    53 -103.047494 -103.047455    0.000038   1.000    0.00085    0.00009
        438    59 -103.047496 -103.047240    0.000255   1.000    0.00085    0.00009
        439    59 -103.047501 -103.047044    0.000457   1.000    0.00084    0.00016
        440    49 -103.047517 -103.046957    0.000560   1.000    0.00084    0.00011
        441    54 -103.047516 -103.046751    0.000765   1.000    0.00083    0.00010
        442    54 -103.047523 -103.046648    0.000875   1.000    0.00083    0.00008
        443    59 -103.047527 -103.046529    0.000998   1.000    0.00082    0.00008
        444    59 -103.047534 -103.046474    0.001059   1.000    0.00081    0.00008
        445    59 -103.047538 -103.046440    0.001098   1.000    0.00080    0.00009
        446    53 -103.047543 -103.046443    0.001100   1.000    0.00080    0.00010
        447    59 -103.047547 -103.046463    0.001084   1.000    0.00080    0.00010
        448    54 -103.047555 -103.046500    0.001054   1.000    0.00080    0.00009
        449    59 -103.047560 -103.046565    0.000995   1.000    0.00080    0.00007
        450    59 -103.047569 -103.046648    0.000921   1.000    0.00080    0.00006
        451    59 -103.047572 -103.046759    0.000813   1.000    0.00079    0.00005
        452    60 -103.047577 -103.046884    0.000693   1.000    0.00079    0.00005
        453    60 -103.047577 -103.047018    0.000559   1.000    0.00079    0.00006
        454    60 -103.047574 -103.047148    0.000427   1.000    0.00079    0.00006
        455    60 -103.047568 -103.047265    0.000303   1.000    0.00079    0.00006
        456    60 -103.047559 -103.047361    0.000198   1.000    0.00079    0.00006
        457    60 -103.047548 -103.047429    0.000119   1.000    0.00079    0.00007
        458    59 -103.047535 -103.047467    0.000068   1.000    0.00079    0.00007
        459    59 -103.047522 -103.047470    0.000052   1.000    0.00079    0.00007
        460    59 -103.047511 -103.047441    0.000070   1.000    0.00079    0.00007
        461    59 -103.047500 -103.047383    0.000117   1.000    0.00079    0.00006
        462    59 -103.047494 -103.047300    0.000194   1.000    0.00079    0.00006
        463    60 -103.047486 -103.047201    0.000286   1.000    0.00079    0.00005
        464    61 -103.047485 -103.047092    0.000392   1.000    0.00079    0.00004
        465    60 -103.047484 -103.046984    0.000500   1.000    0.00079    0.00004
        466    61 -103.047486 -103.046882    0.000604   1.000    0.00079    0.00004
        467    61 -103.047489 -103.046792    0.000697   1.000    0.00079    0.00005
        468    60 -103.047493 -103.046719    0.000774   1.000    0.00078    0.00005
        469    60 -103.047498 -103.046665    0.000833   1.000    0.00078    0.00005
        470    60 -103.047503 -103.046631    0.000872   1.000    0.00078    0.00006
        471    60 -103.047509 -103.046618    0.000890   1.000    0.00077    0.00006
        472    60 -103.047513 -103.046626    0.000887   1.000    0.00077    0.00006
        473    60 -103.047517 -103.046652    0.000865   1.000    0.00077    0.00006
        474    60 -103.047521 -103.046695    0.000825   1.000    0.00077    0.00005
        475    60 -103.047523 -103.046752    0.000772   1.000    0.00077    0.00005
        476    59 -103.047524 -103.046819    0.000706   1.000    0.00076    0.00004
        477    60 -103.047525 -103.046892    0.000634   1.000    0.00076    0.00004
        478    60 -103.047524 -103.046967    0.000557   1.000    0.00076    0.00004
        479    60 -103.047522 -103.047039    0.000482   1.000    0.00076    0.00004
        480    60 -103.047518 -103.047106    0.000412   1.000    0.00076    0.00004
        481    60 -103.047513 -103.047161    0.000352   1.000    0.00076    0.00005
        482    60 -103.047507 -103.047203    0.000304   1.000    0.00076    0.00005
        483    60 -103.047500 -103.047229    0.000271   1.000    0.00076    0.00005
        484    60 -103.047494 -103.047238    0.000256   1.000    0.00076    0.00005
        485    59 -103.047486 -103.047229    0.000257   1.000    0.00076    0.00005
        486    59 -103.047481 -103.047204    0.000277   1.000    0.00076    0.00005
        487    60 -103.047475 -103.047165    0.000309   1.000    0.00076    0.00005
        488    60 -103.047471 -103.047115    0.000356   1.000    0.00076    0.00004
        489    60 -103.047467 -103.047058    0.000410   1.000    0.00076    0.00004
        490    60 -103.047466 -103.046996    0.000470   1.000    0.00076    0.00004
        491    61 -103.047464 -103.046935    0.000529   1.000    0.00076    0.00004
        492    61 -103.047465 -103.046878    0.000587   1.000    0.00076    0.00004
        493    61 -103.047467 -103.046828    0.000639   1.000    0.00075    0.00004
        494    60 -103.047469 -103.046787    0.000682   1.000    0.00075    0.00004
        495    60 -103.047471 -103.046758    0.000713   1.000    0.00075    0.00004
        496    60 -103.047475 -103.046742    0.000732   1.000    0.00075    0.00005
        497    60 -103.047478 -103.046739    0.000739   1.000    0.00075    0.00005
        498    60 -103.047480 -103.046748    0.000732   1.000    0.00075    0.00004
        499    60 -103.047482 -103.046769    0.000713   1.000    0.00074    0.00004

        ==> Orbital Optimization <==

            Orbital Optimization did not converge in  20 iterations 
            Total energy change: -2.282467e-02
            Final gradient norm: 6.712762e-04

        500    60 -103.070309 -101.889973    1.180336   9.643    0.00075    0.00008
        501   111 -103.078302 -100.527904    2.550398   9.643    0.04539    0.35698
        502    60 -103.097468 -102.116705    0.980763   9.643    0.03993    0.22689
        503    56 -103.099485 -103.345237    0.245752   9.643    0.03290    0.19347
        504    55 -103.092522 -104.306399    1.213876   9.643    0.01856    0.20683
        505    56 -103.086867 -104.536619    1.449752   9.643    0.00892    0.19918
        506    61 -103.082826 -104.161072    1.078246   9.643    0.01640    0.16664
        507    61 -103.081761 -103.459929    0.378167   9.643    0.01939    0.13299
        508    61 -103.084605 -102.793810    0.290795   9.643    0.01632    0.12604
        509    57 -103.083559 -102.514759    0.568800   9.643    0.01422    0.12774
        510    59 -103.100285 -102.628953    0.471332   9.643    0.00957    0.11238
        511    57 -103.099171 -102.841399    0.257772   9.643    0.01141    0.09513
        512    60 -103.103931 -103.072355    0.031576   9.643    0.01070    0.08192
        513    54 -103.101447 -103.240496    0.139049   9.643    0.01094    0.07355
        514    54 -103.101059 -103.355652    0.254593   9.643    0.01051    0.06993
        515    43 -103.102565 -103.427154    0.324589   9.643    0.00876    0.06853
        516    43 -103.101599 -103.459574    0.357975   9.643    0.00881    0.06646
        517    50 -103.101614 -103.433134    0.331520   9.643    0.00918    0.06515
        518    48 -103.100056 -103.416870    0.316814   9.643    0.00893    0.06548
        519    54 -103.098373 -103.414973    0.316600   9.643    0.00769    0.06568
        520    54 -103.096477 -103.435221    0.338744   9.643    0.00666    0.06641
        521    54 -103.095219 -103.471095    0.375876   9.643    0.00578    0.06589
        522    54 -103.092941 -103.483907    0.390966   9.643    0.00453    0.06648
        523    54 -103.091351 -103.493928    0.402578   9.643    0.00467    0.06352
        524    55 -103.089465 -103.461784    0.372319   9.643    0.00537    0.05775
        525    56 -103.088213 -103.398069    0.309856   9.643    0.00613    0.05187
        526    54 -103.086894 -103.317581    0.230687   9.643    0.00610    0.04648
        527    56 -103.086181 -103.233471    0.147291   9.643    0.00596    0.04159
        528    56 -103.086044 -103.157865    0.071821   9.643    0.00577    0.03707
        529    56 -103.086129 -103.090180    0.004050   9.643    0.00534    0.03451
        530    56 -103.086689 -103.038289    0.048400   9.643    0.00488    0.03459
        531    50 -103.087487 -102.995397    0.092090   9.643    0.00431    0.03756
        532    55 -103.088433 -102.968216    0.120218   9.643    0.00374    0.03912
        533    50 -103.089578 -102.939612    0.149965   9.643    0.00338    0.03994
        534    50 -103.090831 -102.923308    0.167522   9.643    0.00320    0.03976
        535    43 -103.091981 -102.914894    0.177087   9.643    0.00299    0.03861
        536    54 -103.092508 -102.922039    0.170470   9.643    0.00264    0.03688
        537    54 -103.093490 -102.945772    0.147718   9.643    0.00272    0.03433
        538    55 -103.094060 -102.973295    0.120765   9.643    0.00297    0.03147
        539    56 -103.094625 -103.009473    0.085151   9.643    0.00315    0.02857
        540    56 -103.094864 -103.049162    0.045702   9.643    0.00335    0.02589
        541    56 -103.094944 -103.090560    0.004384   9.643    0.00338    0.02402
        542    54 -103.094789 -103.128850    0.034060   9.643    0.00332    0.02334
        543    54 -103.094475 -103.163824    0.069349   9.643    0.00316    0.02380
        544    54 -103.093984 -103.193249    0.099265   9.643    0.00298    0.02495
        545    54 -103.093364 -103.216645    0.123281   9.643    0.00278    0.02621
        546    54 -103.092379 -103.233651    0.141272   9.643    0.00271    0.02722
        547    48 -103.091672 -103.244329    0.152656   9.643    0.00260    0.02740
        548    48 -103.090933 -103.244228    0.153295   9.643    0.00266    0.02680
        549    47 -103.090186 -103.234923    0.144737   9.643    0.00275    0.02547
        550    52 -103.089343 -103.217761    0.128418   9.643    0.00287    0.02361
        551    54 -103.088882 -103.196132    0.107250   9.643    0.00307    0.02123
        552    53 -103.088452 -103.168976    0.080524   9.643    0.00319    0.01878
        553    54 -103.088243 -103.139419    0.051176   9.643    0.00327    0.01657
        554    54 -103.088127 -103.109087    0.020960   9.643    0.00327    0.01496
        555    55 -103.088071 -103.080418    0.007653   9.643    0.00303    0.01482
        556    50 -103.088232 -103.060711    0.027521   9.643    0.00284    0.01581
        557    54 -103.088578 -103.043981    0.044598   9.643    0.00277    0.01597
        558    48 -103.088951 -103.029352    0.059598   9.643    0.00269    0.01583
        559    50 -103.089429 -103.015891    0.073538   9.643    0.00255    0.01775
        560    54 -103.090013 -103.009490    0.080522   9.643    0.00255    0.01722
        561    48 -103.090490 -102.999491    0.090999   9.643    0.00250    0.01646
        562    47 -103.090833 -103.002984    0.087849   9.643    0.00245    0.01603
        563    49 -103.091232 -103.018467    0.072765   9.643    0.00247    0.01448
        564    49 -103.091523 -103.032537    0.058986   9.643    0.00253    0.01294
        565    49 -103.091663 -103.050357    0.041305   9.643    0.00257    0.01183
        566    50 -103.091778 -103.071750    0.020028   9.643    0.00257    0.01054
        567    52 -103.091753 -103.089198    0.002554   9.643    0.00254    0.00953
        568    49 -103.091672 -103.106637    0.014965   9.643    0.00250    0.00906
        569    47 -103.091500 -103.119444    0.027943   9.643    0.00244    0.00903
        570    54 -103.091283 -103.131835    0.040552   9.643    0.00237    0.00956
        571    53 -103.091011 -103.141468    0.050456   9.643    0.00227    0.01094
        572    42 -103.090820 -103.153251    0.062431   9.643    0.00216    0.01182
        573    52 -103.090486 -103.159285    0.068799   9.643    0.00213    0.01250
        574    54 -103.090115 -103.162960    0.072845   9.643    0.00213    0.01265
        575    54 -103.089711 -103.162940    0.073229   9.643    0.00217    0.01238
        576    54 -103.089310 -103.160573    0.071263   9.643    0.00223    0.01230
        577    55 -103.088885 -103.157988    0.069103   9.643    0.00232    0.01128
        578    54 -103.088513 -103.146096    0.057583   9.643    0.00237    0.01033
        579    55 -103.088216 -103.134138    0.045922   9.643    0.00243    0.00931
        580    56 -103.088015 -103.118661    0.030646   9.643    0.00247    0.00830
        581    53 -103.087915 -103.103805    0.015890   9.643    0.00250    0.00741
        582    57 -103.087907 -103.088969    0.001062   9.643    0.00251    0.00675
        583    55 -103.087960 -103.075102    0.012858   9.643    0.00248    0.00650
        584    55 -103.087683 -103.061779    0.025904   9.643    0.00227    0.00759
        585    54 -103.088123 -103.052513    0.035610   9.643    0.00224    0.00762
        586    55 -103.088234 -103.040617    0.047617   9.643    0.00216    0.00812
        587    55 -103.088615 -103.033443    0.055172   9.643    0.00209    0.00878
        588    55 -103.088663 -103.027545    0.061118   9.643    0.00195    0.00938
        589    54 -103.088826 -103.027291    0.061535   9.643    0.00201    0.00953
        590    54 -103.089246 -103.030617    0.058628   9.643    0.00197    0.00893
        591    53 -103.089448 -103.035636    0.053813   9.643    0.00202    0.00855
        592    54 -103.089693 -103.046255    0.043438   9.643    0.00201    0.00854
        593    54 -103.089807 -103.060251    0.029556   9.643    0.00206    0.00725
        594    54 -103.089955 -103.069444    0.020510   9.643    0.00205    0.00619
        595    48 -103.089990 -103.080550    0.009440   9.643    0.00207    0.00552
        596    54 -103.089967 -103.089527    0.000440   9.643    0.00207    0.00532
        597    54 -103.089856 -103.099166    0.009310   9.643    0.00205    0.00595
        598    56 -103.089669 -103.108844    0.019174   9.643    0.00203    0.00627
        599    53 -103.089436 -103.116567    0.027131   9.643    0.00200    0.00694
        600    54 -103.089177 -103.122101    0.032924   9.643    0.00196    0.00744
        601    54 -103.088902 -103.125506    0.036604   9.643    0.00194    0.00768
        602    54 -103.088629 -103.126611    0.037981   9.643    0.00192    0.00763
        603    54 -103.088371 -103.125826    0.037455   9.643    0.00194    0.00776
        604    53 -103.088157 -103.124669    0.036512   9.643    0.00196    0.00710
        605    56 -103.087922 -103.119990    0.032068   9.643    0.00197    0.00656
        606    54 -103.087745 -103.114018    0.026273   9.643    0.00199    0.00600
        607    54 -103.087602 -103.106333    0.018731   9.643    0.00199    0.00580
        608    55 -103.087493 -103.099572    0.012079   9.643    0.00198    0.00527
        609    54 -103.087438 -103.090486    0.003048   9.643    0.00197    0.00497
        610    56 -103.087425 -103.081788    0.005637   9.643    0.00194    0.00524
        611    54 -103.087441 -103.074502    0.012940   9.643    0.00189    0.00561
        612    54 -103.087486 -103.068431    0.019055   9.643    0.00183    0.00536
        613    54 -103.087567 -103.063082    0.024485   9.643    0.00179    0.00541
        614    54 -103.087681 -103.058676    0.029006   9.643    0.00177    0.00545
        615    54 -103.087824 -103.055487    0.032337   9.643    0.00176    0.00577
        616    54 -103.087971 -103.054783    0.033187   9.643    0.00174    0.00564
        617    54 -103.088131 -103.054943    0.033188   9.643    0.00173    0.00568
        618    54 -103.088285 -103.056395    0.031890   9.643    0.00174    0.00566
        619    54 -103.088427 -103.058732    0.029695   9.643    0.00175    0.00555
        620    54 -103.088548 -103.062012    0.026536   9.643    0.00177    0.00532
        621    54 -103.088644 -103.065955    0.022689   9.643    0.00178    0.00502
        622    54 -103.088708 -103.070449    0.018259   9.643    0.00179    0.00471
        623    54 -103.088739 -103.075250    0.013490   9.643    0.00179    0.00445
        624    54 -103.088738 -103.080159    0.008579   9.643    0.00179    0.00428
        625    54 -103.088708 -103.084921    0.003787   9.643    0.00178    0.00424
        626    54 -103.088652 -103.089302    0.000650   9.643    0.00177    0.00430
        627    54 -103.088575 -103.093089    0.004514   9.643    0.00176    0.00443
        628    54 -103.088483 -103.096137    0.007654   9.643    0.00175    0.00458
        629    54 -103.088381 -103.098352    0.009972   9.643    0.00174    0.00472
        630    54 -103.088273 -103.099732    0.011459   9.643    0.00170    0.00557
        631    59 -103.088122 -103.103453    0.015331   9.643    0.00167    0.00546
        632    54 -103.087963 -103.103986    0.016023   9.643    0.00166    0.00529
        633    56 -103.087803 -103.102662    0.014858   9.643    0.00167    0.00517
        634    54 -103.087663 -103.100411    0.012749   9.643    0.00167    0.00498
        635    54 -103.087533 -103.097117    0.009584   9.643    0.00168    0.00469
        636    54 -103.087428 -103.093192    0.005764   9.643    0.00168    0.00433
        637    54 -103.087349 -103.088926    0.001577   9.643    0.00168    0.00400
        638    53 -103.087308 -103.084693    0.002615   9.643    0.00167    0.00375
        639    53 -103.087293 -103.080719    0.006573   9.643    0.00166    0.00365
        640    54 -103.087312 -103.077190    0.010121   9.643    0.00164    0.00366
        641    54 -103.087348 -103.074245    0.013103   9.643    0.00162    0.00373
        642    54 -103.087405 -103.071981    0.015424   9.643    0.00160    0.00380
        643    54 -103.087473 -103.070484    0.016989   9.643    0.00159    0.00384
        644    54 -103.087550 -103.069795    0.017755   9.643    0.00157    0.00382
        645    54 -103.087623 -103.069899    0.017724   9.643    0.00156    0.00376
        646    54 -103.087695 -103.070724    0.016972   9.643    0.00156    0.00380
        647    53 -103.087721 -103.073428    0.014294   9.643    0.00155    0.00372
        648    54 -103.087665 -103.075699    0.011966   9.643    0.00149    0.00382
        649    54 -103.087686 -103.078890    0.008795   9.643    0.00150    0.00382
        650    56 -103.087636 -103.081091    0.006545   9.643    0.00148    0.00385
        651    54 -103.087609 -103.083119    0.004491   9.643    0.00148    0.00390
        652    54 -103.087552 -103.084443    0.003109   9.643    0.00145    0.00394
        653    54 -103.087500 -103.085570    0.001930   9.643    0.00143    0.00397
        654    54 -103.087435 -103.086458    0.000977   9.643    0.00140    0.00396
        655    56 -103.087371 -103.087303    0.000068   9.643    0.00138    0.00393
        656    56 -103.087303 -103.088003    0.000700   9.643    0.00136    0.00386
        657    56 -103.087236 -103.088555    0.001319   9.643    0.00134    0.00377
        658    59 -103.087172 -103.088866    0.001694   9.643    0.00132    0.00367
        659    59 -103.087111 -103.088850    0.001739   9.643    0.00131    0.00357
        660    59 -103.087053 -103.088582    0.001528   9.643    0.00130    0.00347
        661    60 -103.087009 -103.088017    0.001008   9.643    0.00127    0.00380
        662    59 -103.086969 -103.088269    0.001299   9.643    0.00125    0.00438
        663    60 -103.086914 -103.089508    0.002594   9.643    0.00122    0.00404
        664    56 -103.086807 -103.090121    0.003314   9.643    0.00116    0.00403
        665    60 -103.086738 -103.092521    0.005783   9.643    0.00114    0.00382
        666    59 -103.086645 -103.092724    0.006079   9.643    0.00110    0.00415
        667    55 -103.086565 -103.094028    0.007463   9.643    0.00108    0.00419
        668    59 -103.086473 -103.093007    0.006535   9.643    0.00105    0.00423
        669    55 -103.086355 -103.093258    0.006902   9.643    0.00104    0.00418
        670    50 -103.086250 -103.092338    0.006087   9.643    0.00102    0.00415
        671    48 -103.086164 -103.091250    0.005087   9.643    0.00098    0.00496
        672    48 -103.086065 -103.091744    0.005679   9.643    0.00094    0.00503
        673    56 -103.085979 -103.091538    0.005559   9.643    0.00085    0.00639
        674    60 -103.085889 -103.095558    0.009669   9.643    0.00081    0.00558
        675    56 -103.085781 -103.095532    0.009751   9.643    0.00079    0.00526
        676    56 -103.085648 -103.096883    0.011235   9.643    0.00078    0.00501
        677    55 -103.085525 -103.096835    0.011309   9.643    0.00076    0.00483
        678    56 -103.085404 -103.096832    0.011428   9.643    0.00075    0.00467
        679    56 -103.085303 -103.095487    0.010184   9.643    0.00074    0.00452
        680    56 -103.085219 -103.093951    0.008732   9.643    0.00073    0.00437
        681    56 -103.085156 -103.091862    0.006706   9.643    0.00073    0.00422
        682    56 -103.085107 -103.089588    0.004481   9.643    0.00073    0.00405
        683    56 -103.085072 -103.086997    0.001925   9.643    0.00073    0.00386
        684    56 -103.085053 -103.084334    0.000719   9.643    0.00072    0.00367
        685    57 -103.085052 -103.081640    0.003412   9.643    0.00068    0.00410
        686    56 -103.085099 -103.080574    0.004525   9.643    0.00060    0.00419
        687    55 -103.085141 -103.079603    0.005538   9.643    0.00054    0.00424
        688    55 -103.085196 -103.079582    0.005614   9.643    0.00050    0.00416
        689    56 -103.085256 -103.080817    0.004440   9.643    0.00047    0.00404
        690    56 -103.085320 -103.082115    0.003205   9.643    0.00045    0.00400
        691    55 -103.085371 -103.083217    0.002154   9.643    0.00044    0.00401
        692    61 -103.085403 -103.084718    0.000686   9.643    0.00044    0.00390
        693    56 -103.085418 -103.085387    0.000031   9.643    0.00044    0.00377
        694    61 -103.085412 -103.086438    0.001026   9.643    0.00045    0.00358
        695    56 -103.085389 -103.087264    0.001875   9.643    0.00046    0.00333
        696    56 -103.085356 -103.088323    0.002967   9.643    0.00047    0.00308
        697    56 -103.085315 -103.089418    0.004102   9.643    0.00047    0.00288
        698    61 -103.085269 -103.090596    0.005327   9.643    0.00046    0.00280
        699    61 -103.085218 -103.091732    0.006514   9.643    0.00045    0.00280
        700    61 -103.085165 -103.092748    0.007584   9.643    0.00043    0.00284
        701    56 -103.085111 -103.093535    0.008424   9.643    0.00041    0.00288
        702    55 -103.085053 -103.094155    0.009102   9.643    0.00039    0.00286
        703    60 -103.084997 -103.094259    0.009262   9.643    0.00038    0.00279
        704    61 -103.084941 -103.094069    0.009128   9.643    0.00037    0.00266
        705    61 -103.084886 -103.093455    0.008569   9.643    0.00036    0.00251
        706    61 -103.084834 -103.092557    0.007722   9.643    0.00036    0.00237
        707    61 -103.084786 -103.091375    0.006589   9.643    0.00036    0.00226
        708    60 -103.084744 -103.090004    0.005260   9.643    0.00035    0.00219
        709    61 -103.084710 -103.088490    0.003780   9.643    0.00035    0.00212
        710    61 -103.084687 -103.086905    0.002218   9.643    0.00035    0.00204
        711    61 -103.084677 -103.085296    0.000618   9.643    0.00035    0.00193
        712    61 -103.084680 -103.083729    0.000951   9.643    0.00035    0.00180
        713    61 -103.084700 -103.082245    0.002455   9.643    0.00036    0.00169
        714    61 -103.084733 -103.080907    0.003826   9.643    0.00036    0.00163
        715    61 -103.084778 -103.079765    0.005014   9.643    0.00036    0.00163
        716    61 -103.084834 -103.078862    0.005972   9.643    0.00035    0.00168
        717    61 -103.084894 -103.078236    0.006658   9.643    0.00036    0.00172
        718    60 -103.084957 -103.077903    0.007054   9.643    0.00036    0.00174
        719    59 -103.085017 -103.077860    0.007157   9.643    0.00036    0.00170
        720    61 -103.085071 -103.078084    0.006987   9.643    0.00037    0.00162
        721    56 -103.085118 -103.078542    0.006576   9.643    0.00038    0.00150
        722    56 -103.085154 -103.079171    0.005982   9.643    0.00038    0.00139
        723    56 -103.085179 -103.079928    0.005252   9.643    0.00038    0.00130
        724    56 -103.085195 -103.080743    0.004452   9.643    0.00038    0.00125
        725    56 -103.085200 -103.081573    0.003627   9.643    0.00038    0.00123
        726    56 -103.085198 -103.082366    0.002832   9.643    0.00038    0.00123
        727    56 -103.085190 -103.083095    0.002094   9.643    0.00038    0.00123
        728    56 -103.085177 -103.083733    0.001444   9.643    0.00037    0.00122
        729    56 -103.085160 -103.084269    0.000891   9.643    0.00037    0.00120
        730    56 -103.085143 -103.084701    0.000442   9.643    0.00036    0.00117
        731    56 -103.085124 -103.085031    0.000093   9.643    0.00036    0.00114
        732    55 -103.085106 -103.085268    0.000162   9.643    0.00035    0.00110
        733    55 -103.085088 -103.085426    0.000338   9.643    0.00035    0.00107
        734    56 -103.085072 -103.085518    0.000446   9.643    0.00034    0.00104
        735    56 -103.085057 -103.085560    0.000503   9.643    0.00034    0.00101
        736    61 -103.085043 -103.085560    0.000517   9.643    0.00033    0.00098
        737    60 -103.085031 -103.085553    0.000522   9.643    0.00033    0.00095
        738    61 -103.085020 -103.085523    0.000502   9.643    0.00033    0.00092
        739    60 -103.085012 -103.085501    0.000489   9.643    0.00033    0.00089
        740    60 -103.085005 -103.085484    0.000479   9.643    0.00033    0.00086
        741    60 -103.085001 -103.085483    0.000482   9.643    0.00033    0.00084
        742    61 -103.084997 -103.085495    0.000498   9.643    0.00033    0.00084
        743    61 -103.084996 -103.085525    0.000529   9.643    0.00032    0.00083
        744    61 -103.084994 -103.085565    0.000571   9.643    0.00032    0.00083
        745    61 -103.084994 -103.085612    0.000617   9.643    0.00032    0.00082
        746    61 -103.084993 -103.085662    0.000669   9.643    0.00032    0.00080
        747    61 -103.084992 -103.085702    0.000710   9.643    0.00032    0.00078
        748    61 -103.084990 -103.085732    0.000742   9.643    0.00032    0.00075
        749    61 -103.084988 -103.085740    0.000752   9.643    0.00032    0.00072
        750    60 -103.084984 -103.085725    0.000742   9.643    0.00032    0.00070
        751    59 -103.084981 -103.085678    0.000697   9.643    0.00032    0.00068
        752    60 -103.084975 -103.085607    0.000632   9.643    0.00032    0.00068
        753    59 -103.084972 -103.085502    0.000531   9.643    0.00032    0.00067
        754    60 -103.084967 -103.085374    0.000406   9.643    0.00032    0.00067
        755    59 -103.084964 -103.085223    0.000258   9.643    0.00032    0.00067
        756    60 -103.084962 -103.085054    0.000092   9.643    0.00032    0.00066
        757    60 -103.084961 -103.084877    0.000084   9.643    0.00031    0.00066
        758    61 -103.084962 -103.084696    0.000266   9.643    0.00031    0.00066
        759    61 -103.084964 -103.084524    0.000440   9.643    0.00031    0.00065
        760    61 -103.084968 -103.084365    0.000603   9.643    0.00031    0.00065
        761    61 -103.084972 -103.084228    0.000745   9.643    0.00031    0.00064
        762    61 -103.084978 -103.084118    0.000860   9.643    0.00031    0.00063
        763    61 -103.084984 -103.084044    0.000940   9.643    0.00031    0.00062
        764    61 -103.084991 -103.084006    0.000985   9.643    0.00031    0.00060
        765    61 -103.084997 -103.084009    0.000988   9.643    0.00031    0.00059
        766    61 -103.085003 -103.084049    0.000954   9.643    0.00031    0.00057
        767    61 -103.085007 -103.084129    0.000879   9.643    0.00031    0.00056
        768    61 -103.085012 -103.084239    0.000773   9.643    0.00031    0.00055
        769    61 -103.085014 -103.084377    0.000637   9.643    0.00031    0.00055
        770    61 -103.085016 -103.084613    0.000402   9.643    0.00031    0.00056
        771    61 -103.085004 -103.084916    0.000088   9.643    0.00031    0.00060
        772    61 -103.085000 -103.085151    0.000151   9.643    0.00030    0.00062
        773    61 -103.084991 -103.085342    0.000351   9.643    0.00030    0.00063
        774    61 -103.084986 -103.085438    0.000452   9.643    0.00030    0.00063
        775    61 -103.084978 -103.085488    0.000511   9.643    0.00030    0.00062
        776    61 -103.084972 -103.085482    0.000510   9.643    0.00030    0.00061
        777    61 -103.084963 -103.085546    0.000583   9.643    0.00030    0.00059
        778    61 -103.084955 -103.085552    0.000597   9.643    0.00030    0.00058
        779    60 -103.084950 -103.085503    0.000553   9.643    0.00030    0.00057
        780    60 -103.084946 -103.085431    0.000484   9.643    0.00029    0.00057
        781    60 -103.084943 -103.085347    0.000404   9.643    0.00029    0.00061
        782    60 -103.084943 -103.085518    0.000575   9.643    0.00029    0.00062
        783    60 -103.084942 -103.085388    0.000446   9.643    0.00029    0.00063
        784    61 -103.084941 -103.085352    0.000411   9.643    0.00030    0.00062
        785    60 -103.084909 -103.085213    0.000304   9.643    0.00029    0.00075
        786    60 -103.084920 -103.085392    0.000472   9.643    0.00028    0.00071
        787    60 -103.084904 -103.085269    0.000364   9.643    0.00029    0.00071
        788    60 -103.084905 -103.085291    0.000385   9.643    0.00028    0.00071
        789    60 -103.084898 -103.085187    0.000289   9.643    0.00028    0.00072
        790    61 -103.084898 -103.085130    0.000232   9.643    0.00028    0.00072
        791    61 -103.084896 -103.085030    0.000134   9.643    0.00028    0.00073
        792    60 -103.084897 -103.084961    0.000063   9.643    0.00028    0.00073
        793    61 -103.084899 -103.084895    0.000004   9.643    0.00028    0.00074
        794    61 -103.084903 -103.084869    0.000034   9.643    0.00028    0.00074
        795    61 -103.084907 -103.084875    0.000032   9.643    0.00028    0.00074
        796    60 -103.084911 -103.084927    0.000016   9.643    0.00028    0.00074
        797    61 -103.084916 -103.085018    0.000102   9.643    0.00028    0.00075
        798    60 -103.084919 -103.085153    0.000235   9.643    0.00028    0.00075
        799    60 -103.084922 -103.085316    0.000394   9.643    0.00028    0.00076
[...]

            Orbital Optimization converged in   5 iterations 
            Total energy change: -2.093188e-07
            Final gradient norm: 8.663770e-05

       2400    74 -103.086519 -103.078310    0.008210   2.146    0.00080    0.00191
       2401    50 -103.086806 -103.080666    0.006140   2.146    0.00106    0.00129
       2402    43 -103.087004 -103.083032    0.003972   2.146    0.00102    0.00089
       2403    42 -103.087075 -103.085257    0.001818   2.146    0.00085    0.00089
       2404    42 -103.087032 -103.086831    0.000202   2.146    0.00067    0.00098
       2405    39 -103.086951 -103.087965    0.001014   2.146    0.00055    0.00096
       2406    38 -103.086848 -103.088362    0.001514   2.146    0.00051    0.00082
       2407    38 -103.086741 -103.088308    0.001567   2.146    0.00049    0.00064
       2408    39 -103.086638 -103.087972    0.001334   2.146    0.00046    0.00056
       2409    39 -103.086546 -103.087613    0.001067   2.146    0.00041    0.00065
       2410    39 -103.086470 -103.087355    0.000885   2.146    0.00035    0.00079
       2411    40 -103.086406 -103.087289    0.000882   2.146    0.00031    0.00090
       2412    39 -103.086347 -103.087423    0.001076   2.146    0.00029    0.00094
       2413    39 -103.086285 -103.087709    0.001424   2.146    0.00027    0.00094
       2414    39 -103.086213 -103.088063    0.001849   2.146    0.00023    0.00092
       2415    40 -103.086132 -103.088370    0.002238   2.146    0.00021    0.00088
       2416    42 -103.086041 -103.088531    0.002490   2.146    0.00023    0.00081
       2417    43 -103.085950 -103.088460    0.002510   2.146    0.00029    0.00072
       2418    42 -103.085867 -103.088173    0.002306   2.146    0.00037    0.00061
       2419    38 -103.085814 -103.087810    0.001996   2.146    0.00044    0.00049
       2420    38 -103.085777 -103.087207    0.001430   2.146    0.00047    0.00037
       2421    38 -103.085770 -103.086609    0.000839   2.146    0.00049    0.00027
       2422    37 -103.085787 -103.085986    0.000200   2.146    0.00049    0.00021
       2423    39 -103.085828 -103.085450    0.000378   2.146    0.00046    0.00024
       2424    39 -103.085885 -103.085004    0.000881   2.146    0.00042    0.00033
       2425    36 -103.085956 -103.084689    0.001266   2.146    0.00037    0.00044
       2426    36 -103.086033 -103.084487    0.001545   2.146    0.00031    0.00053
       2427    39 -103.086112 -103.084401    0.001711   2.146    0.00024    0.00061
       2428    39 -103.086191 -103.084395    0.001796   2.146    0.00018    0.00065
       2429    39 -103.086265 -103.084452    0.001813   2.146    0.00012    0.00067
       2430    39 -103.086334 -103.084556    0.001777   2.146    0.00009    0.00066
       2431    42 -103.086395 -103.084697    0.001698   2.146    0.00010    0.00063
       2432    42 -103.086449 -103.084881    0.001568   2.146    0.00014    0.00058
       2433    43 -103.086495 -103.085091    0.001405   2.146    0.00019    0.00051
       2434    43 -103.086533 -103.085337    0.001196   2.146    0.00023    0.00042
       2435    43 -103.086560 -103.085608    0.000953   2.146    0.00026    0.00032
       2436    42 -103.086578 -103.085902    0.000676   2.146    0.00029    0.00022
       2437    43 -103.086583 -103.086210    0.000374   2.146    0.00029    0.00012
       2438    48 -103.086577 -103.086522    0.000055   2.146    0.00029    0.00010
       2439    49 -103.086558 -103.086820    0.000262   2.146    0.00027    0.00018
       2440    42 -103.086526 -103.087103    0.000577   2.146    0.00024    0.00026
       2441    42 -103.086484 -103.087359    0.000876   2.146    0.00021    0.00035
       2442    41 -103.086431 -103.087572    0.001142   2.146    0.00016    0.00041
       2443    39 -103.086371 -103.087741    0.001371   2.146    0.00012    0.00046
       2444    41 -103.086305 -103.087848    0.001543   2.146    0.00008    0.00049
       2445    42 -103.086238 -103.087908    0.001670   2.146    0.00005    0.00050
       2446    42 -103.086172 -103.087896    0.001724   2.146    0.00008    0.00049
       2447    42 -103.086110 -103.087828    0.001718   2.146    0.00012    0.00047
       2448    42 -103.086054 -103.087696    0.001643   2.146    0.00017    0.00042
       2449    39 -103.086007 -103.087510    0.001503   2.146    0.00021    0.00036
       2450    39 -103.085970 -103.087282    0.001312   2.146    0.00024    0.00029
       2451    39 -103.085945 -103.087013    0.001068   2.146    0.00026    0.00022
       2452    39 -103.085931 -103.086720    0.000790   2.146    0.00028    0.00014
       2453    43 -103.085929 -103.086418    0.000489   2.146    0.00028    0.00007
       2454    50 -103.085937 -103.086108    0.000171   2.146    0.00028    0.00008
       2455    50 -103.085956 -103.085819    0.000137   2.146    0.00026    0.00015
       2456    42 -103.085985 -103.085548    0.000436   2.146    0.00024    0.00021
       2457    40 -103.086020 -103.085311    0.000710   2.146    0.00021    0.00027
       2458    38 -103.086063 -103.085112    0.000951   2.146    0.00018    0.00032
       2459    39 -103.086110 -103.084961    0.001149   2.146    0.00014    0.00036
       2460    39 -103.086160 -103.084853    0.001306   2.146    0.00011    0.00038
       2461    42 -103.086211 -103.084799    0.001412   2.146    0.00008    0.00038
       2462    42 -103.086261 -103.084789    0.001472   2.146    0.00007    0.00037
       2463    49 -103.086309 -103.084834    0.001474   2.146    0.00008    0.00035
       2464    48 -103.086353 -103.084919    0.001433   2.146    0.00010    0.00032
       2465    48 -103.086391 -103.085050    0.001341   2.146    0.00012    0.00027
       2466    43 -103.086421 -103.085212    0.001209   2.146    0.00014    0.00022
       2467    43 -103.086444 -103.085409    0.001035   2.146    0.00015    0.00016
       2468    43 -103.086458 -103.085621    0.000837   2.146    0.00016    0.00010
       2469    43 -103.086463 -103.085849    0.000614   2.146    0.00016    0.00006
       2470    50 -103.086459 -103.086078    0.000381   2.146    0.00016    0.00008
       2471    48 -103.086446 -103.086297    0.000148   2.146    0.00015    0.00013
       2472    43 -103.086425 -103.086502    0.000077   2.146    0.00013    0.00017
       2473    42 -103.086398 -103.086684    0.000287   2.146    0.00011    0.00022
       2474    43 -103.086365 -103.086834    0.000469   2.146    0.00009    0.00025
       2475    43 -103.086329 -103.086949    0.000619   2.146    0.00006    0.00028
       2476    43 -103.086292 -103.087024    0.000733   2.146    0.00005    0.00029
       2477    42 -103.086254 -103.087062    0.000808   2.146    0.00006    0.00029
       2478    42 -103.086218 -103.087059    0.000841   2.146    0.00008    0.00028
       2479    42 -103.086184 -103.087020    0.000836   2.146    0.00010    0.00026
       2480    42 -103.086155 -103.086949    0.000794   2.146    0.00012    0.00023
       2481    42 -103.086131 -103.086850    0.000720   2.146    0.00014    0.00019
       2482    39 -103.086112 -103.086728    0.000616   2.146    0.00016    0.00015
       2483    39 -103.086100 -103.086595    0.000495   2.146    0.00017    0.00010
       2484    42 -103.086094 -103.086452    0.000358   2.146    0.00018    0.00006
       2485    50 -103.086095 -103.086303    0.000208   2.146    0.00018    0.00003
       2486    55 -103.086102 -103.086164    0.000062   2.146    0.00017    0.00006
       2487    43 -103.086114 -103.086029    0.000085   2.146    0.00016    0.00010
       2488    42 -103.086131 -103.085915    0.000216   2.146    0.00015    0.00014
       2489    39 -103.086152 -103.085814    0.000338   2.146    0.00014    0.00017
       2490    39 -103.086176 -103.085743    0.000433   2.146    0.00012    0.00020
       2491    39 -103.086202 -103.085692    0.000510   2.146    0.00010    0.00021
       2492    38 -103.086228 -103.085669    0.000559   2.146    0.00008    0.00022
       2493    42 -103.086254 -103.085670    0.000584   2.146    0.00007    0.00022
       2494    43 -103.086278 -103.085698    0.000581   2.146    0.00006    0.00021
       2495    49 -103.086300 -103.085749    0.000552   2.146    0.00006    0.00019
       2496    48 -103.086319 -103.085816    0.000503   2.146    0.00007    0.00017
       2497    48 -103.086334 -103.085903    0.000431   2.146    0.00008    0.00014
       2498    48 -103.086344 -103.086000    0.000345   2.146    0.00008    0.00011
       2499    43 -103.086350 -103.086103    0.000247   2.146    0.00009    0.00008

        ==> Orbital Optimization <==

            Orbital Optimization converged in   4 iterations 
            Total energy change: -6.946155e-08
            Final gradient norm: 6.603332e-05

       2500    48 -103.086352 -103.080169    0.006183   3.941    0.00009    0.00005
       2501    65 -103.086395 -103.082027    0.004368   3.941    0.00023    0.00089
       2502    56 -103.086482 -103.083416    0.003067   3.941    0.00028    0.00056
       2503    55 -103.086540 -103.084739    0.001801   3.941    0.00025    0.00033
       2504    48 -103.086545 -103.085913    0.000632   3.941    0.00021    0.00033
       2505    48 -103.086516 -103.086874    0.000358   3.941    0.00017    0.00042
       2506    42 -103.086474 -103.087510    0.001036   3.941    0.00014    0.00046
       2507    48 -103.086427 -103.087778    0.001351   3.941    0.00013    0.00046
       2508    40 -103.086379 -103.087751    0.001373   3.941    0.00012    0.00044
       2509    42 -103.086334 -103.087580    0.001246   3.941    0.00011    0.00044
       2510    42 -103.086296 -103.087386    0.001090   3.941    0.00010    0.00047
       2511    43 -103.086267 -103.087231    0.000964   3.941    0.00008    0.00050
       2512    48 -103.086245 -103.087155    0.000910   3.941    0.00007    0.00053
       2513    48 -103.086226 -103.087162    0.000936   3.941    0.00007    0.00052
       2514    49 -103.086208 -103.087235    0.001027   3.941    0.00008    0.00049
       2515    49 -103.086189 -103.087340    0.001151   3.941    0.00009    0.00044
       2516    49 -103.086168 -103.087430    0.001262   3.941    0.00010    0.00039
       2517    49 -103.086147 -103.087460    0.001313   3.941    0.00012    0.00033
       2518    50 -103.086127 -103.087399    0.001273   3.941    0.00013    0.00027
       2519    50 -103.086110 -103.087236    0.001126   3.941    0.00015    0.00020
       2520    49 -103.086099 -103.086981    0.000883   3.941    0.00016    0.00015
       2521    43 -103.086095 -103.086663    0.000568   3.941    0.00016    0.00013
       2522    43 -103.086098 -103.086316    0.000218   3.941    0.00016    0.00015
       2523    43 -103.086109 -103.085980    0.000129   3.941    0.00016    0.00019
       2524    43 -103.086125 -103.085685    0.000441   3.941    0.00014    0.00024
       2525    42 -103.086146 -103.085453    0.000693   3.941    0.00013    0.00028
       2526    42 -103.086170 -103.085293    0.000877   3.941    0.00011    0.00032
       2527    42 -103.086195 -103.085206    0.000989   3.941    0.00010    0.00034
       2528    48 -103.086219 -103.085181    0.001037   3.941    0.00008    0.00035
       2529    49 -103.086241 -103.085210    0.001031   3.941    0.00007    0.00035
       2530    48 -103.086261 -103.085275    0.000986   3.941    0.00006    0.00033
       2531    48 -103.086278 -103.085368    0.000910   3.941    0.00006    0.00030
       2532    48 -103.086292 -103.085479    0.000813   3.941    0.00006    0.00026
       2533    53 -103.086303 -103.085602    0.000702   3.941    0.00007    0.00022
       2534    49 -103.086312 -103.085732    0.000580   3.941    0.00007    0.00017
       2535    50 -103.086318 -103.085869    0.000450   3.941    0.00008    0.00012
       2536    49 -103.086322 -103.086008    0.000314   3.941    0.00008    0.00007
       2537    50 -103.086322 -103.086148    0.000174   3.941    0.00008    0.00005
       2538    55 -103.086320 -103.086286    0.000034   3.941    0.00007    0.00008

        ==> Orbital Optimization <==

            Orbital Optimization converged in   2 iterations 
            Total energy change: -1.235733e-08
            Final gradient norm: 5.473976e-05

       2539    52 -103.086305 -103.086593    0.000287   3.941    0.00007    0.00020
       2540    50 -103.086299 -103.086695    0.000396   3.941    0.00006    0.00022
       2541    48 -103.086289 -103.086728    0.000439   3.941    0.00006    0.00025
       2542    48 -103.086274 -103.086740    0.000466   3.941    0.00005    0.00027
       2543    48 -103.086257 -103.086759    0.000502   3.941    0.00005    0.00028
       2544    49 -103.086241 -103.086779    0.000538   3.941    0.00006    0.00028
       2545    48 -103.086226 -103.086784    0.000559   3.941    0.00006    0.00026
       2546    50 -103.086212 -103.086774    0.000562   3.941    0.00007    0.00024
       2547    49 -103.086200 -103.086747    0.000547   3.941    0.00008    0.00021
       2548    49 -103.086190 -103.086703    0.000513   3.941    0.00009    0.00017
       2549    48 -103.086182 -103.086636    0.000454   3.941    0.00010    0.00013
       2550    49 -103.086177 -103.086548    0.000371   3.941    0.00011    0.00009
       2551    48 -103.086174 -103.086441    0.000266   3.941    0.00011    0.00005
       2552    54 -103.086174 -103.086325    0.000150   3.941    0.00011    0.00003
       2553    60 -103.086177 -103.086204    0.000027   3.941    0.00011    0.00006
       2554    50 -103.086182 -103.086092    0.000090   3.941    0.00010    0.00010
       2555    49 -103.086189 -103.085991    0.000197   3.941    0.00010    0.00013
       2556    48 -103.086197 -103.085908    0.000290   3.941    0.00009    0.00016
       2557    49 -103.086207 -103.085843    0.000364   3.941    0.00008    0.00018
       2558    49 -103.086217 -103.085799    0.000418   3.941    0.00007    0.00020
       2559    49 -103.086228 -103.085774    0.000454   3.941    0.00006    0.00020
       2560    49 -103.086238 -103.085768    0.000470   3.941    0.00006    0.00020
       2561    48 -103.086248 -103.085778    0.000470   3.941    0.00005    0.00019
       2562    49 -103.086257 -103.085801    0.000455   3.941    0.00005    0.00018
       2563    48 -103.086264 -103.085838    0.000427   3.941    0.00005    0.00016
       2564    50 -103.086270 -103.085885    0.000385   3.941    0.00005    0.00013
       2565    50 -103.086275 -103.085942    0.000333   3.941    0.00006    0.00010
       2566    55 -103.086278 -103.086007    0.000271   3.941    0.00006    0.00007
       2567    50 -103.086280 -103.086079    0.000201   3.941    0.00006    0.00004
       2568    55 -103.086279 -103.086153    0.000126   3.941    0.00006    0.00004
       2569    56 -103.086277 -103.086229    0.000048   3.941    0.00006    0.00005

        ==> Orbital Optimization <==

            Orbital Optimization converged in   2 iterations 
            Total energy change: -2.133757e-08
            Final gradient norm: 2.982026e-05

       2570    60 -103.086241 -103.088452    0.002211   3.941    0.00011    0.00054
       2571    42 -103.086200 -103.087991    0.001791   3.941    0.00015    0.00043
       2572    42 -103.086165 -103.087458    0.001293   3.941    0.00015    0.00038
       2573    42 -103.086144 -103.086968    0.000824   3.941    0.00014    0.00037
       2574    42 -103.086134 -103.086569    0.000434   3.941    0.00013    0.00037
       2575    43 -103.086132 -103.086297    0.000164   3.941    0.00012    0.00035
       2576    48 -103.086134 -103.086151    0.000017   3.941    0.00012    0.00029
       2577    49 -103.086139 -103.086113    0.000026   3.941    0.00012    0.00021
       2578    48 -103.086145 -103.086125    0.000020   3.941    0.00012    0.00014
       2579    49 -103.086150 -103.086141    0.000010   3.941    0.00013    0.00009
       2580    48 -103.086156 -103.086120    0.000035   3.941    0.00013    0.00011
       2581    50 -103.086161 -103.086047    0.000114   3.941    0.00013    0.00016
       2582    43 -103.086168 -103.085921    0.000247   3.941    0.00013    0.00019
       2583    43 -103.086177 -103.085755    0.000422   3.941    0.00013    0.00022
       2584    43 -103.086189 -103.085578    0.000611   3.941    0.00012    0.00025
       2585    43 -103.086205 -103.085415    0.000790   3.941    0.00010    0.00027
       2586    43 -103.086223 -103.085296    0.000928   3.941    0.00009    0.00028
       2587    49 -103.086244 -103.085234    0.001009   3.941    0.00007    0.00028
       2588    49 -103.086264 -103.085244    0.001020   3.941    0.00006    0.00027
       2589    50 -103.086282 -103.085314    0.000969   3.941    0.00006    0.00026
       2590    55 -103.086299 -103.085437    0.000862   3.941    0.00006    0.00023
       2591    56 -103.086311 -103.085596    0.000715   3.941    0.00006    0.00020
       2592    56 -103.086319 -103.085772    0.000547   3.941    0.00006    0.00016
       2593    54 -103.086323 -103.085950    0.000373   3.941    0.00006    0.00012
       2594    48 -103.086324 -103.086119    0.000205   3.941    0.00006    0.00007
       2595    48 -103.086320 -103.086272    0.000048   3.941    0.00006    0.00005

        ==> Orbital Optimization <==

            Orbital Optimization converged in   1 iterations 
            Total energy change: -3.596085e-09
            Final gradient norm: 2.908011e-05


      v2RDM iterations converged!

      v2RDM total spin [S(S+1)]:             0.000004
    * v2RDM total energy:           -103.086320457484


 # Natural Orbital Occupation Numbers (alpha) #
 Irrep: 1
      1:  1.0000000
      2:  1.0000000
      3:  0.9980346
      4:  0.0000000
      5:  0.0000000
      6:  0.0000000
      7:  0.0000000

 Irrep: 2
      1:  0.0000000

 Irrep: 3
      1:  0.0042244
      2:  0.0000000
      3:  0.0000000

 Irrep: 4
      1:  0.0042254
      2:  0.0000000
      3:  0.0000000

 Irrep: 5
      1:  0.0000000

 Irrep: 6
      1:  1.0000000
      2:  1.0000000
      3:  0.0016489
      4:  0.0000000
      5:  0.0000000
      6:  0.0000000
      7:  0.0000000

 Irrep: 7
      1:  0.9959332
      2:  0.0000000
      3:  0.0000000

 Irrep: 8
      1:  0.9959335
      2:  0.0000000
      3:  0.0000000


 # Natural Orbital Occupation Numbers (beta) #
 Irrep: 1
      1:  1.0000000
      2:  1.0000000
      3:  0.9980346
      4:  0.0000000
      5:  0.0000000
      6:  0.0000000
      7:  0.0000000

 Irrep: 2
      1:  0.0000000

 Irrep: 3
      1:  0.0042244
      2:  0.0000000
      3:  0.0000000

 Irrep: 4
      1:  0.0042254
      2:  0.0000000
      3:  0.0000000

 Irrep: 5
      1:  0.0000000

 Irrep: 6
      1:  1.0000000
      2:  1.0000000
      3:  0.0016489
      4:  0.0000000
      5:  0.0000000
      6:  0.0000000
      7:  0.0000000

 Irrep: 7
      1:  0.9959332
      2:  0.0000000
      3:  0.0000000

 Irrep: 8
      1:  0.9959335
      2:  0.0000000
      3:  0.0000000


  ==> Iteration count <==

      Microiterations:                  131186
      Macroiterations:                    2596
      Orbital optimization steps:           15

  ==> Wall time <==

      Microiterations:                   12.78 s
      Macroiterations:                    2.87 s
      Orbital optimization:               1.18 s
      Total:                             17.40 s


*** tstop() called on wg-dhcp201d206d180.secure.wireless.fsu. at Mon May  9 10:06:56 2016
Module time:
	user time   =      17.44 seconds =       0.29 minutes
	system time =       0.04 seconds =       0.00 minutes
	total time  =         17 seconds =       0.28 minutes
Total time:
	user time   =      18.79 seconds =       0.31 minutes
	system time =       0.05 seconds =       0.00 minutes
	total time  =         19 seconds =       0.32 minutes
	SCF total energy..................................................PASSED
	v2RDM-CASSCF total energy.........................................PASSED

*** PSI4 exiting successfully. Buy a developer a beer!
