    -----------------------------------------------------------------------
          Psi4: An Open-Source Ab Initio Electronic Structure Package
                              Psi4 0.3.34 Driver

                          Git: Rev {master} f3d6bec dirty

    J. M. Turney, A. C. Simmonett, R. M. Parrish, E. G. Hohenstein,
    F. A. Evangelista, J. T. Fermann, B. J. Mintz, L. A. Burns, J. J. Wilke,
    M. L. Abrams, N. J. Russ, M. L. Leininger, C. L. Janssen, E. T. Seidl,
    W. D. Allen, H. F. Schaefer, R. A. King, E. F. Valeev, C. D. Sherrill,
    and T. D. Crawford, WIREs Comput. Mol. Sci. 2, 556-565 (2012)
    (doi: 10.1002/wcms.93)

                         Additional Contributions by
    A. E. DePrince, M. Saitow, U. Bozkaya, A. Yu. Sokolov
    -----------------------------------------------------------------------


    Psi4 started on: Fri Aug 21 15:28:23 2015

    Process ID:  37201
    PSI4DATADIR: /Users/deprince/psi4-install/psi4public/share/psi
    Memory level set to 256.000 MB

  ==> Input File <==

--------------------------------------------------------------------------
#! cc-pvdz N2 (6,6) active space Test DQG

sys.path.insert(0, '../../..')
import v2rdm_casscf

molecule n2 {
0 1
n
n 1 r
}

set {
  basis cc-pvdz
  scf_type cd
  cholesky_tolerance 1e-12
  d_convergence      1e-10
  maxiter 500
  frozen_docc  [ 2, 0, 0, 0, 0, 2, 0, 0 ]
  frozen_uocc  [ 4, 1, 2, 2, 1, 4, 2, 2 ]
}
set v2rdm_casscf {
  positivity dqg
  r_convergence  1e-4
  e_convergence  1e-4
  maxiter 20000
}

activate(n2)

n2.r     = 0.5
refscf   = -103.04337420425341 # TEST
refv2rdm = -103.086367952045   # TEST

energy('v2rdm-casscf')

compare_values(refscf, get_variable("SCF TOTAL ENERGY"), 8, "SCF total energy") # TEST
compare_values(refv2rdm, get_variable("CURRENT ENERGY"), 4, "v2RDM-CASSCF total energy") # TEST

--------------------------------------------------------------------------
/Users/deprince/chem/v2rdm_casscf/v2rdm_casscf.so loaded.
Setting geometry variable r to 0.500000

*** tstart() called on Eugenes-MacBook-Pro-2.local
*** at Fri Aug 21 15:28:23 2015


         ---------------------------------------------------------
                                   SCF
            by Justin Turney, Rob Parrish, and Andy Simmonett
                              RHF Reference
                        1 Threads,    256 MiB Core
         ---------------------------------------------------------

  ==> Geometry <==

    Molecular point group: d2h
    Full point group: D_inf_h

    Geometry (in Angstrom), charge = 0, multiplicity = 1:

       Center              X                  Y                   Z       
    ------------   -----------------  -----------------  -----------------
           N          0.000000000000     0.000000000000    -0.250000000000
           N          0.000000000000     0.000000000000     0.250000000000

  Running in d2h symmetry.

  Rotational constants: A = ************  B =      9.63082  C =      9.63082 [cm^-1]
  Rotational constants: A = ************  B = 288724.60708  C = 288724.60708 [MHz]
  Nuclear repulsion =   51.859366441819994

  Charge       = 0
  Multiplicity = 1
  Electrons    = 14
  Nalpha       = 7
  Nbeta        = 7

  ==> Algorithm <==

  SCF Algorithm Type is CD.
  DIIS enabled.
  MOM disabled.
  Fractional occupation disabled.
  Guess Type is CORE.
  Energy threshold   = 1.00e-08
  Density threshold  = 1.00e-10
  Integral threshold = 0.00e+00

  ==> Primary Basis <==

  Basis Set: CC-PVDZ
    Number of shells: 12
    Number of basis function: 28
    Number of Cartesian functions: 30
    Spherical Harmonics?: true
    Max angular momentum: 2

  ==> Pre-Iterations <==

   -------------------------------------------------------
    Irrep   Nso     Nmo     Nalpha   Nbeta   Ndocc  Nsocc
   -------------------------------------------------------
     Ag         7       7       0       0       0       0
     B1g        1       1       0       0       0       0
     B2g        3       3       0       0       0       0
     B3g        3       3       0       0       0       0
     Au         1       1       0       0       0       0
     B1u        7       7       0       0       0       0
     B2u        3       3       0       0       0       0
     B3u        3       3       0       0       0       0
   -------------------------------------------------------
    Total      28      28       7       7       7       0
   -------------------------------------------------------

 OEINTS: Overlap, kinetic, potential, dipole, and quadrupole integrals
         stored in file 35.

  ==> Integral Setup <==

  ==> CDJK: Cholesky-decomposed J/K Matrices <==

    J tasked:                     Yes
    K tasked:                     Yes
    wK tasked:                     No
    OpenMP threads:                 1
    Integrals threads:              1
    Memory (MB):                  183
    Algorithm:                   Core
    Integral Cache:              SAVE
    Schwarz Cutoff:             1E-12
    Cholesky tolerance:      1.00E-12
    No. Cholesky vectors:         342

  Minimum eigenvalue in the overlap matrix is 1.5735752976E-04.
  Using Symmetric Orthogonalization.
  SCF Guess: Core (One-Electron) Hamiltonian.

  ==> Iterations <==

                        Total Energy        Delta E     RMS |[F,P]|

    Occupation by irrep:
             Ag   B1g   B2g   B3g    Au   B1u   B2u   B3u 
    DOCC [     3,    0,    0,    0,    0,    2,    1,    1 ]

   @RHF iter   1:   -88.54248632162333   -8.85425e+01   4.57822e-01 
   @RHF iter   2:   -97.65432344860082   -9.11184e+00   2.89351e-01 DIIS
   @RHF iter   3:  -103.02104353617742   -5.36672e+00   2.16155e-02 DIIS
   @RHF iter   4:  -103.04290174334801   -2.18582e-02   2.90864e-03 DIIS
   @RHF iter   5:  -103.04336662616782   -4.64883e-04   3.30426e-04 DIIS
   @RHF iter   6:  -103.04337393110868   -7.30494e-06   4.64105e-05 DIIS
   @RHF iter   7:  -103.04337419566036   -2.64552e-07   1.10338e-05 DIIS
   @RHF iter   8:  -103.04337420419273   -8.53237e-09   8.62477e-07 DIIS
   @RHF iter   9:  -103.04337420425296   -6.02256e-11   7.21357e-08 DIIS
   @RHF iter  10:  -103.04337420425338   -4.26326e-13   2.10812e-09 DIIS
   @RHF iter  11:  -103.04337420425341   -2.84217e-14   4.13688e-10 DIIS
   @RHF iter  12:  -103.04337420425344   -2.84217e-14   2.77994e-11 DIIS

  ==> Post-Iterations <==

    Orbital Energies (a.u.)
    -----------------------

    Doubly Occupied:                                                      

       1Ag   -16.484161     1B1u  -15.785893     2Ag    -1.444309  
       1B3u   -1.176599     1B2u   -1.176599     2B1u   -0.543616  
       3Ag    -0.524272  

    Virtual:                                                              

       1B2g    0.538181     1B3g    0.538181     2B3u    0.594641  
       2B2u    0.594641     3B1u    0.614128     4Ag     0.726476  
       5Ag     1.055370     2B3g    1.450590     2B2g    1.450590  
       6Ag     1.682008     1B1g    1.682008     4B1u    1.789550  
       3B3u    2.801107     3B2u    2.801107     5B1u    2.816412  
       1Au     2.841104     6B1u    2.841104     7Ag     3.148621  
       3B3g    4.716074     3B2g    4.716074     7B1u   13.525785  

    Final Occupation by Irrep:
             Ag   B1g   B2g   B3g    Au   B1u   B2u   B3u 
    DOCC [     3,    0,    0,    0,    0,    2,    1,    1 ]

  Energy converged.

  @RHF Final Energy:  -103.04337420425344

   => Energetics <=

    Nuclear Repulsion Energy =             51.8593664418199936
    One-Electron Energy =                -235.5345802006835356
    Two-Electron Energy =                  80.6318395546100675
    DFT Exchange-Correlation Energy =       0.0000000000000000
    Empirical Dispersion Energy =           0.0000000000000000
    PCM Polarization Energy =               0.0000000000000000
    EFP Energy =                            0.0000000000000000
    Total Energy =                       -103.0433742042534817

    Alert: EFP and PCM quantities not currently incorporated into SCF psivars.

Properties will be evaluated at   0.000000,   0.000000,   0.000000 Bohr
  ==> Properties <==


Properties computed using the SCF density matrix

  Nuclear Dipole Moment: (a.u.)
     X:     0.0000      Y:     0.0000      Z:     0.0000

  Electronic Dipole Moment: (a.u.)
     X:     0.0000      Y:     0.0000      Z:     0.0000

  Dipole Moment: (a.u.)
     X:     0.0000      Y:     0.0000      Z:     0.0000     Total:     0.0000

  Dipole Moment: (Debye)
     X:     0.0000      Y:     0.0000      Z:     0.0000     Total:     0.0000


  Saving occupied orbitals to File 180.

*** tstop() called on Eugenes-MacBook-Pro-2.local at Fri Aug 21 15:28:24 2015
Module time:
	user time   =       0.61 seconds =       0.01 minutes
	system time =       0.01 seconds =       0.00 minutes
	total time  =          1 seconds =       0.02 minutes
Total time:
	user time   =       0.61 seconds =       0.01 minutes
	system time =       0.01 seconds =       0.00 minutes
	total time  =          1 seconds =       0.02 minutes
Reading options from the V2RDM_CASSCF block
Calling plugin v2rdm_casscf.so.

*** tstart() called on Eugenes-MacBook-Pro-2.local
*** at Fri Aug 21 15:28:24 2015



        *******************************************************
        *                                                     *
        *    v-2RDM                                           *
        *                                                     *
        *    Ground-state variational 2-RDM optimization      *
        *    using a boundary-point semidefinite solver       *
        *                                                     *
        *    Eugene DePrince                                  *
        *                                                     *
        *******************************************************

  ==> Input parameters <==

        Freeze core orbitals?                 yes
        Number of frozen core orbitals:         4
        Number of active occupied orbitals:     3
        Number of active virtual orbitals:      3
        Number of frozen virtual orbitals:     18
        r_convergence:                  1.000e-04
        e_convergence:                  1.000e-04
        cg_convergence:                 1.000e-05
        maxiter:                            20000
        cg_maxiter:                         10000

  ==> Memory requirements <==

        D2:                          0.00 mb
        Q2:                          0.00 mb
        G2:                          0.01 mb

        Total number of variables:           1500
        Total number of constraints:         1282
        Total memory requirements:        1.15 mb

    ==> Transform three-electron integrals <==


        Time for integral transformation:     0.03 s


    reference energy:        -103.043374204253
    frozen core energy:      -138.046901361522
    initial 2-RDM energy:     -86.084606776650

      oiter iiter        E(p)        E(d)      E gap)      mu     eps(p)     eps(d)
          0    71 -107.299122  145.966255  253.265377   1.000   56.41211   72.36217
          1    41  -85.282244 -267.520601  182.238357   1.000    9.01714   30.48383
          2    42 -110.440224 -111.679941    1.239717   1.000   13.57308    6.14880
          3    42  -97.507403 -102.173505    4.666102   1.000    6.57269    3.65177
          4    42 -102.195736 -102.193631    0.002105   1.000    3.48118    2.78031
          5    42  -98.605763  -98.926975    0.321211   1.000    1.66033    2.04480
          6    42 -101.269462  -98.962059    2.307403   1.000    1.14759    1.46571
          7    35 -100.417815  -98.009005    2.408811   1.000    0.77084    1.23480
          8    38 -101.383915 -100.193896    1.190019   1.000    0.44064    0.78898
          9    39 -101.029706 -100.111756    0.917950   1.000    0.23452    0.63628
         10    42 -101.452746 -100.193078    1.259668   1.000    0.24367    0.51427
         11    38 -101.477354  -99.822917    1.654437   1.000    0.17988    0.45486
         12    41 -101.757583  -99.957067    1.800515   1.000    0.16360    0.41922
         13    40 -101.841440 -100.169968    1.671472   1.000    0.19618    0.38841
         14    39 -101.986226 -100.452100    1.534126   1.000    0.16200    0.37044
         15    41 -102.072456 -100.525532    1.546924   1.000    0.14069    0.35856
         16    39 -102.196335 -100.543761    1.652574   1.000    0.13754    0.34984
         17    40 -102.296177 -100.591897    1.704280   1.000    0.15803    0.34012
         18    38 -102.402154 -100.699308    1.702846   1.000    0.16157    0.32839
         19    38 -102.489636 -100.811599    1.678037   1.000    0.15113    0.31535
         20    38 -102.563959 -100.955767    1.608192   1.000    0.17458    0.29095
         21    40 -102.618508 -101.310770    1.307738   1.000    0.22741    0.24598
         22    40 -102.647529 -101.918064    0.729465   1.000    0.25202    0.18980
         23    41 -102.659704 -102.436905    0.222799   1.000    0.21104    0.17075
         24    39 -102.663038 -102.720381    0.057343   1.000    0.13930    0.18249
         25    32 -102.665446 -102.743581    0.078135   1.000    0.08635    0.18448
         26    40 -102.674806 -102.585333    0.089472   1.000    0.08885    0.17193
         27    41 -102.693161 -102.316671    0.376490   1.000    0.10811    0.15738
         28    41 -102.719925 -102.055224    0.664700   1.000    0.10504    0.15041
         29    38 -102.751059 -101.884250    0.866809   1.000    0.08598    0.15046
         30    32 -102.781030 -101.839689    0.941340   1.000    0.06363    0.15152
         31    38 -102.806312 -101.889293    0.917019   1.000    0.05103    0.15064
         32    40 -102.827305 -101.999423    0.827882   1.000    0.05142    0.14711
         33    41 -102.844362 -102.140058    0.704304   1.000    0.08479    0.14064
         34    38 -102.854733 -102.337413    0.517320   1.000    0.09655    0.13327
         35    34 -102.855606 -102.478251    0.377356   1.000    0.07781    0.13025
         36    38 -102.859744 -102.476016    0.383728   1.000    0.06070    0.12852
         37    40 -102.872363 -102.379596    0.492767   1.000    0.05345    0.12739
         38    38 -102.892465 -102.272536    0.619929   1.000    0.04088    0.12777
         39    37 -102.917284 -102.204428    0.712856   1.000    0.02515    0.12820
         40    38 -102.941019 -102.196560    0.744459   1.000    0.02282    0.12695
         41    41 -102.961263 -102.233610    0.727652   1.000    0.02937    0.12504
         42    41 -102.976559 -102.281926    0.694633   1.000    0.02913    0.12427
         43    38 -102.988594 -102.313767    0.674827   1.000    0.02235    0.12467
         44    35 -102.999785 -102.317400    0.682385   1.000    0.01511    0.12513
         45    32 -103.011830 -102.299665    0.712165   1.000    0.01348    0.12503
         46    40 -103.025686 -102.274616    0.751070   1.000    0.01634    0.12456
         47    40 -103.040005 -102.257297    0.782708   1.000    0.01892    0.12325
         48    35 -103.055978 -102.267463    0.788515   1.000    0.07071    0.10890
         49    41 -103.083273 -102.481385    0.601888   1.000    0.14003    0.06893
         50    42 -103.100701 -102.939480    0.161221   1.000    0.14703    0.03116
         51    47 -103.088010 -103.351204    0.263193   1.000    0.10423    0.04617
         52    41 -103.064201 -103.550549    0.486348   1.000    0.04194    0.05487
         53    35 -103.039581 -103.520494    0.480913   1.000    0.03893    0.04743
         54    41 -103.023283 -103.328090    0.304807   1.000    0.07082    0.03067
         55    41 -103.019866 -103.078729    0.058862   1.000    0.07408    0.01363
         56    46 -103.028692 -102.876905    0.151787   1.000    0.05147    0.01849
         57    41 -103.043209 -102.785362    0.257847   1.000    0.01999    0.02658
         58    38 -103.056686 -102.812790    0.243896   1.000    0.02375    0.02439
         59    40 -103.063565 -102.915993    0.147572   1.000    0.04012    0.01441
         60    42 -103.064320 -103.044078    0.020241   1.000    0.04064    0.00374
         61    49 -103.058864 -103.145494    0.086630   1.000    0.02838    0.01013
         62    41 -103.051324 -103.188572    0.137248   1.000    0.01376    0.01420
         63    38 -103.044830 -103.171530    0.126700   1.000    0.01567    0.01247
         64    40 -103.041459 -103.113919    0.072460   1.000    0.02229    0.00710
         65    41 -103.041880 -103.046471    0.004591   1.000    0.02186    0.00311
         66    42 -103.044740 -102.995441    0.049299   1.000    0.01591    0.00622
         67    37 -103.048786 -102.976802    0.071983   1.000    0.01103    0.00772
         68    36 -103.051694 -102.987859    0.063834   1.000    0.01259    0.00670
         69    41 -103.053419 -103.018167    0.035251   1.000    0.01511    0.00411
         70    46 -103.052963 -103.054138    0.001175   1.000    0.01455    0.00261
         71    47 -103.051527 -103.079200    0.027673   1.000    0.01172    0.00388
         72    41 -103.049405 -103.088604    0.039199   1.000    0.00974    0.00458
         73    37 -103.047630 -103.082381    0.034751   1.000    0.01019    0.00401
         74    41 -103.046608 -103.065991    0.019383   1.000    0.01109    0.00274
         75    41 -103.046141 -103.047371    0.001230   1.000    0.01000    0.00226
         76    41 -103.046820 -103.034014    0.012805   1.000    0.00911    0.00256
         77    41 -103.048021 -103.029301    0.018720   1.000    0.00872    0.00274
         78    41 -103.049044 -103.031896    0.017148   1.000    0.00888    0.00252
         79    42 -103.049734 -103.039247    0.010487   1.000    0.00905    0.00202
         80    43 -103.049773 -103.048078    0.001695   1.000    0.00895    0.00169
         81    47 -103.049392 -103.055352    0.005960   1.000    0.00855    0.00181
         82    41 -103.048777 -103.059355    0.010577   1.000    0.00814    0.00192
         83    38 -103.048151 -103.059293    0.011141   1.000    0.00792    0.00188
         84    41 -103.047740 -103.055883    0.008143   1.000    0.00788    0.00161
         85    41 -103.047599 -103.050750    0.003152   1.000    0.00780    0.00140
         86    42 -103.047765 -103.045876    0.001890   1.000    0.00766    0.00136
         87    40 -103.048110 -103.042889    0.005220   1.000    0.00752    0.00141
         88    40 -103.049157 -103.042388    0.006769   1.000    0.00716    0.00143
         89    41 -103.049228 -103.044414    0.004814   1.000    0.00716    0.00128
         90    41 -103.049393 -103.047053    0.002340   1.000    0.00711    0.00118
         91    41 -103.049940 -103.049743    0.000197   1.000    0.00672    0.00119
         92    41 -103.049867 -103.051862    0.001994   1.000    0.00638    0.00116
         93    41 -103.050248 -103.052375    0.002126   1.000    0.00613    0.00116
         94    41 -103.049874 -103.051897    0.002023   1.000    0.00604    0.00109
         95    42 -103.050903 -103.050123    0.000780   1.000    0.00567    0.00112
         96    43 -103.050276 -103.049033    0.001244   1.000    0.00560    0.00105
         97    47 -103.050697 -103.047513    0.003183   1.000    0.00552    0.00099
         98    43 -103.050455 -103.047121    0.003333   1.000    0.00548    0.00094
         99    42 -103.050566 -103.046769    0.003797   1.000    0.00541    0.00096
        100    43 -103.050513 -103.047251    0.003262   1.000    0.00535    0.00098
        101    42 -103.050543 -103.048486    0.002057   1.000    0.00526    0.00092
        102    43 -103.050540 -103.049254    0.001286   1.000    0.00519    0.00091
        103    43 -103.050558 -103.050180    0.000378   1.000    0.00509    0.00085
        104    47 -103.050486 -103.050207    0.000279   1.000    0.00506    0.00082
        105    47 -103.050463 -103.049609    0.000854   1.000    0.00502    0.00078
        106    47 -103.050424 -103.048625    0.001798   1.000    0.00498    0.00075
        107    47 -103.050422 -103.047729    0.002693   1.000    0.00488    0.00080
        108    47 -103.050418 -103.047542    0.002876   1.000    0.00474    0.00083
        109    47 -103.050420 -103.048092    0.002328   1.000    0.00459    0.00090
        110    47 -103.050380 -103.049372    0.001008   1.000    0.00449    0.00082
        111    47 -103.050376 -103.049916    0.000461   1.000    0.00442    0.00086
        112    47 -103.050323 -103.050761    0.000438   1.000    0.00441    0.00074
        113    47 -103.050314 -103.050039    0.000275   1.000    0.00443    0.00069
        114    53 -103.050271 -103.049158    0.001113   1.000    0.00444    0.00065
        115    53 -103.050247 -103.047982    0.002265   1.000    0.00431    0.00076
        116    47 -103.050215 -103.047741    0.002474   1.000    0.00425    0.00065
        117    53 -103.050244 -103.047413    0.002831   1.000    0.00417    0.00061
        118    55 -103.050233 -103.047615    0.002618   1.000    0.00413    0.00058
        119    53 -103.050225 -103.047841    0.002384   1.000    0.00411    0.00059
        120    47 -103.050234 -103.048206    0.002028   1.000    0.00411    0.00056
        121    53 -103.050178 -103.048279    0.001899   1.000    0.00410    0.00055
        122    53 -103.050170 -103.048184    0.001986   1.000    0.00409    0.00053
        123    53 -103.050137 -103.047982    0.002155   1.000    0.00407    0.00052
        124    54 -103.050137 -103.047819    0.002317   1.000    0.00404    0.00051
        125    54 -103.050125 -103.047763    0.002362   1.000    0.00401    0.00050
        126    54 -103.050120 -103.047818    0.002303   1.000    0.00397    0.00056
        127    47 -103.050074 -103.048280    0.001794   1.000    0.00394    0.00050
        128    47 -103.050074 -103.048269    0.001804   1.000    0.00393    0.00048
        129    53 -103.050043 -103.048330    0.001713   1.000    0.00392    0.00047
        130    54 -103.050037 -103.048219    0.001818   1.000    0.00391    0.00054
        131    46 -103.050047 -103.048244    0.001802   1.000    0.00392    0.00048
        132    47 -103.049916 -103.048128    0.001788   1.000    0.00390    0.00051
        133    47 -103.049909 -103.048153    0.001756   1.000    0.00390    0.00047
        134    53 -103.049884 -103.048133    0.001751   1.000    0.00389    0.00051
        135    47 -103.049766 -103.048171    0.001595   1.000    0.00396    0.00055
        136    47 -103.049808 -103.048352    0.001456   1.000    0.00390    0.00046
        137    47 -103.049749 -103.048422    0.001327   1.000    0.00391    0.00051
        138    47 -103.049864 -103.048448    0.001416   1.000    0.00377    0.00052
        139    47 -103.049881 -103.048571    0.001310   1.000    0.00378    0.00045
        140    53 -103.049774 -103.048397    0.001377   1.000    0.00379    0.00043
        141    47 -103.049768 -103.048152    0.001615   1.000    0.00375    0.00046
        142    47 -103.049647 -103.048145    0.001502   1.000    0.00371    0.00046
        143    46 -103.049673 -103.047951    0.001722   1.000    0.00370    0.00040
        144    47 -103.049958 -103.047785    0.002173   1.000    0.00361    0.00043
        145    47 -103.049779 -103.047928    0.001852   1.000    0.00358    0.00039
        146    47 -103.049873 -103.047672    0.002201   1.000    0.00357    0.00037
        147    47 -103.049797 -103.047684    0.002113   1.000    0.00355    0.00036
        148    47 -103.049827 -103.047582    0.002245   1.000    0.00353    0.00046
        149    42 -103.049809 -103.047770    0.002039   1.000    0.00351    0.00038
        150    47 -103.049689 -103.047966    0.001723   1.000    0.00332    0.00046
        151    47 -103.049721 -103.048168    0.001553   1.000    0.00335    0.00039
        152    47 -103.049682 -103.048241    0.001441   1.000    0.00332    0.00036
        153    49 -103.049679 -103.048204    0.001475   1.000    0.00331    0.00052
        154    42 -103.049718 -103.048445    0.001273   1.000    0.00331    0.00048
        155    42 -103.049720 -103.048659    0.001062   1.000    0.00334    0.00039
        156    47 -103.049693 -103.048591    0.001102   1.000    0.00333    0.00041
        157    46 -103.049693 -103.048531    0.001162   1.000    0.00333    0.00048
        158    48 -103.049703 -103.048618    0.001086   1.000    0.00331    0.00045
        159    47 -103.049704 -103.048647    0.001057   1.000    0.00330    0.00039
        160    47 -103.049707 -103.048569    0.001137   1.000    0.00330    0.00048
        161    47 -103.049715 -103.048523    0.001192   1.000    0.00331    0.00055
        162    45 -103.049727 -103.048729    0.000998   1.000    0.00331    0.00050
        163    45 -103.049727 -103.049001    0.000726   1.000    0.00334    0.00054
        164    41 -103.049741 -103.049170    0.000571   1.000    0.00341    0.00042
        165    47 -103.049703 -103.048959    0.000744   1.000    0.00343    0.00034
        166    49 -103.049586 -103.048478    0.001108   1.000    0.00315    0.00041
        167    47 -103.049615 -103.048046    0.001569   1.000    0.00322    0.00032
        168    48 -103.049567 -103.047593    0.001974   1.000    0.00311    0.00028
        169    53 -103.049460 -103.047257    0.002203   1.000    0.00284    0.00040
        170    47 -103.049474 -103.047159    0.002316   1.000    0.00284    0.00034
        171    47 -103.049474 -103.047183    0.002291   1.000    0.00278    0.00047
        172    42 -103.049494 -103.047432    0.002062   1.000    0.00281    0.00033
        173    46 -103.049486 -103.047648    0.001838   1.000    0.00283    0.00028
        174    46 -103.049494 -103.047844    0.001650   1.000    0.00285    0.00026
        175    47 -103.049491 -103.048015    0.001477   1.000    0.00286    0.00024
        176    47 -103.049480 -103.048125    0.001356   1.000    0.00284    0.00025
        177    47 -103.049456 -103.048229    0.001226   1.000    0.00281    0.00040
        178    42 -103.049425 -103.048480    0.000945   1.000    0.00276    0.00035
        179    46 -103.049381 -103.048506    0.000875   1.000    0.00276    0.00028
        180    47 -103.049369 -103.048389    0.000980   1.000    0.00278    0.00024
        181    47 -103.049362 -103.048128    0.001234   1.000    0.00282    0.00023
        182    47 -103.049365 -103.047809    0.001556   1.000    0.00285    0.00021
        183    47 -103.049366 -103.047493    0.001873   1.000    0.00285    0.00021
        184    47 -103.049368 -103.047247    0.002121   1.000    0.00283    0.00021
        185    47 -103.049256 -103.047082    0.002174   1.000    0.00251    0.00036
        186    47 -103.049293 -103.047148    0.002145   1.000    0.00253    0.00027
        187    47 -103.049254 -103.047187    0.002067   1.000    0.00246    0.00022
        188    48 -103.049269 -103.047248    0.002021   1.000    0.00248    0.00027
        189    47 -103.049278 -103.047402    0.001875   1.000    0.00247    0.00022
        190    48 -103.049263 -103.047456    0.001807   1.000    0.00248    0.00020
        191    49 -103.049258 -103.047497    0.001760   1.000    0.00247    0.00019
        192    49 -103.049249 -103.047567    0.001682   1.000    0.00247    0.00019
        193    49 -103.049243 -103.047661    0.001581   1.000    0.00246    0.00019
        194    49 -103.049233 -103.047750    0.001484   1.000    0.00246    0.00018
        195    49 -103.049224 -103.047799    0.001425   1.000    0.00246    0.00018
        196    49 -103.049216 -103.047794    0.001422   1.000    0.00247    0.00018
        197    49 -103.049208 -103.047736    0.001472   1.000    0.00247    0.00018
        198    49 -103.049201 -103.047644    0.001557   1.000    0.00247    0.00018
        199    49 -103.049196 -103.047541    0.001655   1.000    0.00247    0.00017

        ==> Orbital Optimization <==

            Orbital Optimization did not converge in  20 iterations 
            Total energy change: -2.730598e-02
            Final gradient norm: 6.445714e-04

        200    49 -103.076496 -101.733401    1.343095  14.300    0.00246    0.00017
        201    92 -103.089394 -100.242310    2.847084  14.300    0.02977    0.39725
        202    61 -103.100278 -101.608884    1.491394  14.300    0.03688    0.27462
        203    59 -103.100388 -103.262725    0.162336  14.300    0.03462    0.20187
        204    54 -103.096544 -104.479989    1.383445  14.300    0.02183    0.23771
        205    53 -103.090305 -104.923193    1.832888  14.300    0.00933    0.24361
        206    61 -103.085755 -104.596105    1.510351  14.300    0.01453    0.21204
        207    61 -103.084669 -103.793517    0.708848  14.300    0.02041    0.16075
        208    59 -103.087219 -102.916987    0.170232  14.300    0.01928    0.13328
        209    56 -103.089188 -102.372544    0.716645  14.300    0.01269    0.15192
        210    54 -103.098808 -102.480549    0.618260  14.300    0.00905    0.13440
        211    59 -103.097401 -102.727116    0.370286  14.300    0.01100    0.11130
        212    54 -103.101665 -103.020266    0.081400  14.300    0.01079    0.09315
        213    53 -103.100956 -103.282436    0.181480  14.300    0.01036    0.08183
        214    54 -103.101257 -103.453758    0.352501  14.300    0.00920    0.07983
        215    49 -103.099882 -103.552703    0.452821  14.300    0.00870    0.08023
        216    42 -103.101632 -103.581665    0.480032  14.300    0.00780    0.08462
        217    54 -103.100140 -103.624692    0.524551  14.300    0.00836    0.09030
        218    47 -103.095997 -103.635959    0.539961  14.300    0.00534    0.09842
        219    54 -103.094497 -103.725327    0.630830  14.300    0.00466    0.09536
        220    47 -103.092081 -103.735672    0.643591  14.300    0.00478    0.09248
        221    53 -103.090434 -103.699910    0.609476  14.300    0.00602    0.08699
        222    54 -103.088623 -103.617960    0.529337  14.300    0.00659    0.08432
        223    56 -103.087051 -103.540980    0.453929  14.300    0.00702    0.07411
        224    53 -103.085445 -103.432360    0.346915  14.300    0.00703    0.06365
        225    54 -103.084525 -103.333238    0.248713  14.300    0.00686    0.05449
        226    55 -103.084226 -103.234623    0.150397  14.300    0.00675    0.04521
        227    56 -103.084563 -103.126267    0.041704  14.300    0.00668    0.04189
        228    56 -103.085412 -103.017501    0.067911  14.300    0.00643    0.04373
        229    55 -103.086530 -102.916824    0.169706  14.300    0.00588    0.04769
        230    55 -103.087820 -102.836454    0.251366  14.300    0.00494    0.05178
        231    53 -103.089163 -102.788529    0.300634  14.300    0.00385    0.05468
        232    53 -103.090554 -102.775581    0.314974  14.300    0.00302    0.05521
        233    49 -103.091903 -102.789862    0.302041  14.300    0.00264    0.05319
        234    53 -103.093011 -102.827464    0.265547  14.300    0.00274    0.04929
        235    54 -103.094048 -102.884439    0.209610  14.300    0.00308    0.04348
        236    53 -103.094865 -102.945465    0.149400  14.300    0.00340    0.03638
        237    53 -103.095457 -103.007845    0.087612  14.300    0.00360    0.02944
        238    53 -103.095234 -103.072098    0.023137  14.300    0.00379    0.02555
        239    53 -103.094996 -103.145089    0.050094  14.300    0.00368    0.02300
        240    54 -103.094571 -103.204930    0.110359  14.300    0.00350    0.02462
        241    52 -103.093874 -103.257170    0.163296  14.300    0.00321    0.02864
        242    52 -103.092969 -103.297985    0.205016  14.300    0.00299    0.03282
        243    52 -103.092043 -103.328789    0.236745  14.300    0.00267    0.03576
        244    53 -103.090946 -103.343673    0.252727  14.300    0.00249    0.03738
        245    53 -103.090069 -103.346619    0.256550  14.300    0.00254    0.03742
        246    54 -103.089081 -103.333525    0.244444  14.300    0.00269    0.03646
        247    54 -103.088379 -103.313990    0.225611  14.300    0.00311    0.03356
        248    54 -103.087730 -103.275018    0.187288  14.300    0.00344    0.02937
        249    54 -103.087298 -103.232560    0.145262  14.300    0.00373    0.02418
        250    54 -103.086742 -103.183437    0.096695  14.300    0.00352    0.01981
        251    56 -103.086616 -103.136952    0.050336  14.300    0.00354    0.01585
        252    54 -103.086654 -103.088422    0.001768  14.300    0.00346    0.01466
        253    55 -103.086838 -103.045110    0.041728  14.300    0.00325    0.01704
        254    56 -103.086919 -103.013309    0.073610  14.300    0.00283    0.01956
        255    54 -103.087540 -102.985624    0.101916  14.300    0.00262    0.02168
        256    54 -103.088002 -102.965075    0.122926  14.300    0.00234    0.02358
        257    53 -103.088671 -102.954921    0.133750  14.300    0.00219    0.02403
        258    54 -103.089286 -102.951425    0.137861  14.300    0.00207    0.02404
        259    53 -103.089908 -102.957156    0.132752  14.300    0.00204    0.02213
        260    53 -103.090378 -102.969371    0.121008  14.300    0.00205    0.02001
        261    53 -103.090742 -102.993482    0.097261  14.300    0.00211    0.01718
        262    51 -103.090980 -103.018548    0.072432  14.300    0.00218    0.01438
        263    53 -103.091115 -103.047894    0.043221  14.300    0.00223    0.01148
        264    53 -103.091081 -103.075547    0.015533  14.300    0.00224    0.00995
        265    53 -103.091014 -103.106012    0.014998  14.300    0.00223    0.00962
        266    53 -103.090818 -103.131277    0.040458  14.300    0.00220    0.01068
        267    54 -103.090543 -103.154771    0.064227  14.300    0.00214    0.01245
        268    56 -103.090197 -103.172557    0.082360  14.300    0.00207    0.01427
        269    55 -103.089781 -103.184765    0.094983  14.300    0.00202    0.01574
        270    56 -103.089328 -103.191093    0.101765  14.300    0.00198    0.01702
        271    54 -103.088807 -103.195423    0.106615  14.300    0.00193    0.01755
        272    54 -103.087990 -103.196425    0.108435  14.300    0.00193    0.01757
        273    54 -103.087658 -103.191950    0.104292  14.300    0.00192    0.01656
        274    54 -103.087155 -103.180162    0.093007  14.300    0.00200    0.01500
        275    53 -103.086821 -103.164416    0.077595  14.300    0.00204    0.01295
        276    53 -103.086496 -103.145123    0.058627  14.300    0.00207    0.01076
        277    59 -103.086301 -103.124218    0.037918  14.300    0.00208    0.00882
        278    53 -103.086165 -103.103779    0.017614  14.300    0.00209    0.00823
        279    53 -103.086095 -103.086478    0.000383  14.300    0.00205    0.00713
        280    54 -103.086133 -103.067692    0.018441  14.300    0.00201    0.00729
        281    53 -103.086249 -103.050334    0.035915  14.300    0.00197    0.00820
        282    54 -103.086452 -103.033968    0.052484  14.300    0.00192    0.00958
        283    54 -103.086705 -103.022162    0.064543  14.300    0.00185    0.01134
        284    53 -103.086985 -103.014451    0.072534  14.300    0.00175    0.01174
        285    54 -103.087317 -103.008191    0.079126  14.300    0.00171    0.01201
        286    54 -103.087558 -103.005619    0.081939  14.300    0.00167    0.01216
        287    56 -103.087886 -103.008223    0.079663  14.300    0.00169    0.01165
        288    58 -103.088179 -103.013518    0.074662  14.300    0.00173    0.01090
        289    53 -103.088463 -103.021548    0.066916  14.300    0.00175    0.00985
        290    58 -103.088676 -103.032293    0.056383  14.300    0.00178    0.00863
        291    53 -103.088836 -103.045150    0.043685  14.300    0.00179    0.00736
        292    58 -103.088921 -103.059715    0.029206  14.300    0.00180    0.00627
        293    58 -103.088943 -103.074868    0.014075  14.300    0.00180    0.00570
        294    59 -103.088902 -103.090312    0.001410  14.300    0.00180    0.00653
        295    60 -103.088827 -103.106505    0.017678  14.300    0.00182    0.00726
        296    57 -103.088641 -103.120531    0.031890  14.300    0.00182    0.00774
        297    53 -103.088405 -103.130004    0.041599  14.300    0.00186    0.00845
        298    54 -103.088130 -103.135518    0.047388  14.300    0.00188    0.00898
        299    54 -103.087852 -103.137538    0.049686  14.300    0.00191    0.00926
        300    54 -103.087574 -103.136569    0.048995  14.300    0.00191    0.00926
        301    54 -103.087309 -103.133205    0.045896  14.300    0.00191    0.00898
        302    59 -103.087066 -103.127955    0.040889  14.300    0.00190    0.00846
        303    54 -103.086860 -103.121264    0.034404  14.300    0.00189    0.00775
        304    56 -103.086693 -103.113515    0.026822  14.300    0.00187    0.00692
        305    54 -103.086569 -103.104999    0.018430  14.300    0.00186    0.00606
        306    54 -103.086489 -103.096017    0.009527  14.300    0.00185    0.00531
        307    54 -103.086451 -103.086862    0.000411  14.300    0.00185    0.00480
        308    54 -103.086452 -103.077849    0.008604  14.300    0.00184    0.00465
        309    54 -103.086489 -103.069433    0.017056  14.300    0.00183    0.00514
        310    54 -103.086540 -103.062808    0.023732  14.300    0.00182    0.00547
        311    54 -103.086621 -103.055658    0.030963  14.300    0.00180    0.00610
        312    54 -103.086584 -103.051053    0.035530  14.300    0.00163    0.00715
        313    54 -103.086673 -103.048949    0.037724  14.300    0.00160    0.00761
        314    54 -103.086580 -103.046300    0.040280  14.300    0.00143    0.00832
        315    60 -103.086712 -103.046956    0.039756  14.300    0.00145    0.00843
        316    54 -103.086714 -103.046142    0.040572  14.300    0.00140    0.00829
        317    54 -103.086811 -103.047573    0.039238  14.300    0.00141    0.00791
        318    54 -103.086869 -103.049052    0.037817  14.300    0.00140    0.00733
        319    59 -103.086962 -103.052037    0.034925  14.300    0.00140    0.00663
        320    54 -103.087043 -103.055697    0.031347  14.300    0.00140    0.00593
        321    54 -103.087126 -103.060550    0.026576  14.300    0.00140    0.00535
        322    59 -103.087184 -103.066749    0.020435  14.300    0.00139    0.00538
        323    53 -103.087200 -103.075549    0.011651  14.300    0.00139    0.00491
        324    53 -103.087195 -103.081630    0.005564  14.300    0.00138    0.00489
        325    54 -103.087158 -103.088573    0.001415  14.300    0.00136    0.00529
        326    59 -103.087093 -103.094912    0.007819  14.300    0.00133    0.00561
        327    53 -103.087005 -103.101694    0.014689  14.300    0.00128    0.00595
        328    59 -103.086893 -103.107593    0.020700  14.300    0.00122    0.00724
        329    55 -103.086764 -103.115716    0.028952  14.300    0.00116    0.00732
        330    56 -103.086605 -103.119970    0.033365  14.300    0.00113    0.00767
        331    56 -103.086421 -103.125176    0.038755  14.300    0.00111    0.00831
        332    47 -103.086228 -103.129500    0.043272  14.300    0.00111    0.00861
        333    53 -103.086019 -103.130788    0.044769  14.300    0.00109    0.00898
        334    43 -103.085791 -103.131266    0.045474  14.300    0.00108    0.00922
        335    49 -103.085556 -103.130654    0.045098  14.300    0.00105    0.00994
        336    55 -103.085299 -103.131794    0.046496  14.300    0.00100    0.00972
        337    54 -103.085019 -103.130224    0.045205  14.300    0.00096    0.00964
        338    55 -103.084756 -103.129367    0.044611  14.300    0.00092    0.00937
        339    54 -103.084499 -103.126028    0.041529  14.300    0.00089    0.00888
        340    54 -103.084254 -103.121702    0.037447  14.300    0.00086    0.00819
        341    54 -103.084030 -103.115335    0.031305  14.300    0.00082    0.00735
        342    56 -103.083842 -103.107845    0.024003  14.300    0.00080    0.00640
        343    54 -103.083700 -103.099529    0.015829  14.300    0.00079    0.00531
        344    53 -103.083617 -103.091492    0.007874  14.300    0.00077    0.00425
        345    53 -103.083594 -103.083052    0.000542  14.300    0.00075    0.00348
        346    53 -103.083630 -103.074531    0.009099  14.300    0.00072    0.00323
        347    54 -103.083721 -103.066337    0.017385  14.300    0.00069    0.00363
        348    53 -103.083862 -103.058842    0.025020  14.300    0.00066    0.00440
        349    54 -103.084042 -103.052212    0.031830  14.300    0.00063    0.00520
        350    53 -103.084252 -103.046596    0.037657  14.300    0.00061    0.00586
        351    54 -103.084479 -103.042438    0.042041  14.300    0.00061    0.00631
        352    56 -103.084714 -103.039805    0.044909  14.300    0.00057    0.00720
        353    42 -103.084987 -103.041221    0.043766  14.300    0.00053    0.00715
        354    56 -103.085221 -103.043198    0.042023  14.300    0.00055    0.00651
        355    48 -103.085416 -103.046790    0.038626  14.300    0.00058    0.00572
        356    49 -103.085561 -103.051516    0.034045  14.300    0.00061    0.00508
        357    49 -103.085662 -103.057443    0.028219  14.300    0.00062    0.00449
        358    53 -103.085720 -103.063381    0.022339  14.300    0.00062    0.00400
        359    52 -103.085740 -103.069660    0.016081  14.300    0.00062    0.00367
        360    53 -103.085684 -103.075768    0.009916  14.300    0.00061    0.00350
        361    54 -103.085655 -103.082286    0.003369  14.300    0.00060    0.00324
        362    56 -103.085577 -103.088090    0.002513  14.300    0.00059    0.00313
        363    56 -103.085497 -103.093064    0.007568  14.300    0.00058    0.00316
        364    56 -103.085393 -103.097251    0.011859  14.300    0.00056    0.00327
        365    49 -103.085287 -103.100538    0.015251  14.300    0.00055    0.00338
        366    50 -103.085176 -103.103200    0.018025  14.300    0.00053    0.00348
        367    48 -103.085065 -103.105123    0.020058  14.300    0.00052    0.00360
        368    45 -103.084953 -103.106254    0.021301  14.300    0.00051    0.00373
        369    49 -103.084845 -103.106764    0.021918  14.300    0.00049    0.00387
        370    48 -103.084743 -103.106693    0.021950  14.300    0.00047    0.00400
        371    55 -103.084650 -103.106231    0.021581  14.300    0.00045    0.00410
        372    55 -103.084566 -103.105368    0.020803  14.300    0.00043    0.00414
        373    54 -103.084492 -103.104218    0.019726  14.300    0.00042    0.00410
        374    56 -103.084429 -103.102785    0.018356  14.300    0.00042    0.00397
        375    53 -103.084374 -103.101138    0.016764  14.300    0.00042    0.00374
        376    53 -103.084328 -103.099301    0.014973  14.300    0.00043    0.00344
        377    53 -103.084289 -103.097332    0.013043  14.300    0.00043    0.00306
        378    52 -103.084255 -103.095685    0.011430  14.300    0.00044    0.00263
        379    53 -103.084222 -103.093987    0.009765  14.300    0.00044    0.00216
        380    53 -103.084192 -103.091844    0.007653  14.300    0.00044    0.00171
        381    53 -103.084167 -103.089487    0.005320  14.300    0.00045    0.00132
        382    53 -103.084151 -103.086793    0.002642  14.300    0.00044    0.00111
        383    53 -103.084144 -103.083894    0.000251  14.300    0.00044    0.00115
        384    53 -103.084149 -103.080813    0.003336  14.300    0.00043    0.00137
        385    53 -103.084165 -103.077701    0.006465  14.300    0.00042    0.00165
        386    53 -103.084193 -103.074665    0.009527  14.300    0.00041    0.00193
        387    53 -103.084232 -103.071853    0.012379  14.300    0.00040    0.00218
        388    53 -103.084236 -103.069378    0.014858  14.300    0.00034    0.00254
        389    59 -103.084322 -103.067961    0.016361  14.300    0.00034    0.00262
        390    52 -103.084377 -103.066686    0.017691  14.300    0.00032    0.00273
        391    53 -103.084461 -103.066168    0.018293  14.300    0.00032    0.00279
        392    60 -103.084498 -103.065974    0.018525  14.300    0.00030    0.00288
        393    54 -103.084590 -103.066820    0.017770  14.300    0.00030    0.00278
        394    54 -103.084649 -103.067393    0.017256  14.300    0.00030    0.00267
        395    56 -103.084723 -103.068583    0.016140  14.300    0.00031    0.00248
        396    56 -103.084781 -103.069904    0.014877  14.300    0.00032    0.00223
        397    56 -103.084840 -103.071700    0.013140  14.300    0.00033    0.00195
        398    55 -103.084886 -103.073787    0.011099  14.300    0.00033    0.00165
        399    55 -103.084924 -103.076250    0.008673  14.300    0.00034    0.00137

        ==> Orbital Optimization <==

            Orbital Optimization converged in  18 iterations 
            Total energy change: -1.549683e-03
            Final gradient norm: 4.854125e-05

        400    55 -103.086498 -103.400276    0.313778   4.206    0.00034    0.00115
        401    79 -103.067617 -103.961041    0.893424   4.206    0.01531    0.11792
        402    54 -103.052279 -103.810103    0.757824   4.206    0.02067    0.09038
        403    47 -103.042427 -103.620793    0.578366   4.206    0.02217    0.06952
        404    47 -103.034812 -103.434211    0.399398   4.206    0.02059    0.06247
        405    42 -103.034286 -103.312414    0.278128   4.206    0.01950    0.05230
        406    46 -103.035532 -103.154750    0.119218   4.206    0.01850    0.04837
        407    37 -103.040775 -103.042903    0.002128   4.206    0.01746    0.04847
        408    37 -103.046966 -102.949088    0.097877   4.206    0.01613    0.05044
        409    37 -103.054473 -102.886866    0.167607   4.206    0.01452    0.05374
        410    41 -103.060045 -102.848110    0.211935   4.206    0.01268    0.05400
        411    42 -103.062891 -102.859393    0.203498   4.206    0.01261    0.04944
        412    41 -103.066639 -102.888404    0.178235   4.206    0.01142    0.04589
        413    42 -103.070785 -102.889433    0.181352   4.206    0.01056    0.04158
        414    37 -103.073882 -102.867559    0.206323   4.206    0.00969    0.03691
        415    41 -103.077033 -102.846637    0.230396   4.206    0.00700    0.03961
        416    43 -103.081778 -102.827618    0.254159   4.206    0.00441    0.04223
        417    47 -103.086662 -102.810307    0.276355   4.206    0.00381    0.04181
        418    38 -103.091152 -102.804799    0.286353   4.206    0.00422    0.03990
        419    43 -103.094046 -102.817357    0.276689   4.206    0.00472    0.03590
        420    43 -103.097489 -102.852679    0.244810   4.206    0.00514    0.03270
        421    47 -103.101077 -102.889414    0.211663   4.206    0.00570    0.02804
        422    47 -103.102810 -102.928062    0.174749   4.206    0.00674    0.02215
        423    47 -103.103030 -102.979181    0.123849   4.206    0.00821    0.01645
        424    46 -103.103130 -103.039190    0.063940   4.206    0.00861    0.01027
        425    42 -103.102180 -103.093491    0.008690   4.206    0.00866    0.00771
        426    46 -103.101301 -103.143423    0.042121   4.206    0.00756    0.01072
        427    42 -103.099968 -103.187279    0.087310   4.206    0.00624    0.01471
        428    42 -103.098447 -103.214989    0.116542   4.206    0.00500    0.01838
        429    42 -103.096625 -103.233372    0.136748   4.206    0.00420    0.02118
        430    42 -103.094601 -103.244455    0.149854   4.206    0.00405    0.02244
        431    36 -103.092421 -103.245222    0.152801   4.206    0.00443    0.02252
        432    40 -103.090324 -103.237159    0.146834   4.206    0.00495    0.02159
        433    41 -103.087731 -103.222072    0.134341   4.206    0.00397    0.02019
        434    43 -103.086073 -103.205424    0.119351   4.206    0.00412    0.01789
        435    46 -103.084805 -103.186323    0.101518   4.206    0.00458    0.01542
        436    47 -103.083921 -103.165568    0.081647   4.206    0.00504    0.01233
        437    47 -103.083035 -103.140683    0.057648   4.206    0.00486    0.01057
        438    47 -103.081207 -103.122102    0.040895   4.206    0.00360    0.00967
        439    47 -103.081805 -103.106933    0.025128   4.206    0.00361    0.00767
        440    47 -103.081785 -103.085325    0.003540   4.206    0.00361    0.00763
        441    47 -103.082362 -103.067477    0.014885   4.206    0.00332    0.00900
        442    41 -103.082725 -103.053440    0.029284   4.206    0.00313    0.00911
        443    47 -103.082906 -103.041167    0.041739   4.206    0.00212    0.01093
        444    42 -103.083841 -103.038611    0.045230   4.206    0.00204    0.00987
        445    42 -103.084602 -103.029672    0.054929   4.206    0.00183    0.00950
        446    42 -103.085516 -103.026618    0.058898   4.206    0.00165    0.00955
        447    42 -103.085875 -103.022739    0.063137   4.206    0.00118    0.00967
        448    42 -103.086981 -103.024277    0.062703   4.206    0.00110    0.00928
        449    43 -103.087713 -103.024823    0.062890   4.206    0.00122    0.00877
        450    42 -103.088659 -103.028609    0.060050   4.206    0.00132    0.00807
        451    41 -103.089407 -103.033150    0.056258   4.206    0.00153    0.00710
        452    41 -103.090043 -103.040443    0.049600   4.206    0.00168    0.00598
        453    41 -103.090533 -103.049394    0.041140   4.206    0.00177    0.00512
        454    38 -103.090945 -103.060933    0.030012   4.206    0.00177    0.00444
        455    42 -103.091150 -103.072091    0.019059   4.206    0.00179    0.00392
        456    45 -103.091046 -103.082075    0.008971   4.206    0.00186    0.00336
        457    46 -103.090785 -103.091328    0.000543   4.206    0.00188    0.00309
        458    38 -103.090436 -103.102015    0.011579   4.206    0.00181    0.00321
        459    42 -103.089974 -103.111808    0.021834   4.206    0.00166    0.00389
        460    42 -103.089435 -103.118945    0.029510   4.206    0.00149    0.00430
        461    38 -103.088816 -103.122892    0.034076   4.206    0.00133    0.00469
        462    42 -103.088179 -103.124811    0.036633   4.206    0.00120    0.00499
        463    39 -103.087559 -103.125309    0.037751   4.206    0.00110    0.00516
        464    39 -103.087012 -103.124966    0.037954   4.206    0.00101    0.00521
        465    41 -103.086499 -103.122658    0.036159   4.206    0.00096    0.00516
        466    42 -103.086059 -103.120252    0.034193   4.206    0.00095    0.00502
        467    42 -103.085689 -103.116662    0.030973   4.206    0.00094    0.00481
        468    42 -103.085351 -103.113029    0.027678   4.206    0.00087    0.00458
        469    47 -103.085090 -103.109200    0.024110   4.206    0.00081    0.00444
        470    47 -103.084901 -103.106491    0.021591   4.206    0.00080    0.00418
        471    47 -103.084736 -103.103027    0.018291   4.206    0.00085    0.00389
        472    47 -103.084641 -103.100346    0.015705   4.206    0.00092    0.00355
        473    47 -103.084518 -103.097224    0.012705   4.206    0.00104    0.00314
        474    47 -103.084465 -103.094546    0.010081   4.206    0.00116    0.00258
        475    42 -103.084398 -103.091825    0.007427   4.206    0.00126    0.00200
        476    42 -103.084468 -103.089231    0.004763   4.206    0.00123    0.00151
        477    42 -103.084464 -103.085930    0.001466   4.206    0.00115    0.00147
        478    42 -103.084586 -103.082780    0.001806   4.206    0.00105    0.00166
        479    41 -103.084659 -103.079289    0.005370   4.206    0.00089    0.00202
        480    41 -103.084795 -103.076168    0.008627   4.206    0.00077    0.00237
        481    41 -103.085042 -103.073359    0.011682   4.206    0.00065    0.00262
        482    41 -103.085267 -103.070757    0.014511   4.206    0.00058    0.00278
        483    42 -103.085540 -103.068622    0.016919   4.206    0.00054    0.00287
        484    42 -103.085807 -103.067058    0.018749   4.206    0.00052    0.00292
        485    47 -103.086093 -103.065978    0.020115   4.206    0.00053    0.00296
        486    42 -103.086167 -103.065184    0.020983   4.206    0.00043    0.00305
        487    47 -103.086525 -103.065816    0.020709   4.206    0.00042    0.00298
        488    42 -103.086715 -103.066095    0.020621   4.206    0.00050    0.00285
        489    47 -103.087004 -103.067410    0.019594   4.206    0.00056    0.00263
        490    42 -103.087220 -103.068935    0.018285   4.206    0.00063    0.00236
        491    42 -103.087455 -103.071151    0.016304   4.206    0.00067    0.00205
        492    42 -103.087633 -103.073692    0.013941   4.206    0.00069    0.00174
        493    42 -103.087780 -103.076636    0.011144   4.206    0.00071    0.00143
        494    42 -103.087866 -103.079749    0.008117   4.206    0.00071    0.00115
        495    42 -103.087901 -103.082959    0.004943   4.206    0.00071    0.00093
        496    42 -103.087880 -103.086096    0.001784   4.206    0.00071    0.00083
        497    42 -103.087811 -103.089073    0.001262   4.206    0.00068    0.00097
        498    42 -103.087697 -103.092063    0.004366   4.206    0.00064    0.00119
        499    42 -103.087536 -103.094660    0.007124   4.206    0.00059    0.00138
        500    42 -103.087336 -103.096457    0.009121   4.206    0.00053    0.00158
        501    42 -103.087129 -103.098202    0.011073   4.206    0.00046    0.00176
        502    42 -103.086911 -103.099328    0.012417   4.206    0.00039    0.00190
        503    42 -103.086685 -103.099902    0.013217   4.206    0.00033    0.00200
        504    42 -103.086470 -103.100157    0.013687   4.206    0.00031    0.00203
        505    42 -103.086266 -103.099984    0.013718   4.206    0.00031    0.00200
        506    42 -103.086076 -103.099452    0.013376   4.206    0.00034    0.00193
        507    42 -103.085903 -103.098548    0.012646   4.206    0.00037    0.00182
        508    42 -103.085753 -103.097346    0.011593   4.206    0.00039    0.00170
        509    42 -103.085632 -103.095895    0.010264   4.206    0.00040    0.00156
        510    47 -103.085542 -103.094363    0.008821   4.206    0.00040    0.00141
        511    47 -103.085482 -103.092690    0.007208   4.206    0.00041    0.00126
        512    47 -103.085450 -103.090973    0.005523   4.206    0.00041    0.00111
        513    47 -103.085443 -103.089283    0.003839   4.206    0.00042    0.00097
        514    47 -103.085458 -103.087698    0.002240   4.206    0.00044    0.00086
        515    47 -103.085491 -103.086242    0.000751   4.206    0.00045    0.00079
        516    47 -103.085536 -103.084927    0.000609   4.206    0.00047    0.00076
        517    47 -103.085592 -103.083799    0.001793   4.206    0.00049    0.00075
        518    42 -103.085654 -103.082824    0.002830   4.206    0.00050    0.00078
        519    42 -103.085720 -103.081906    0.003813   4.206    0.00050    0.00085
        520    42 -103.085789 -103.081054    0.004735   4.206    0.00048    0.00095
        521    42 -103.085866 -103.080356    0.005510   4.206    0.00044    0.00110
        522    42 -103.085952 -103.079928    0.006024   4.206    0.00038    0.00121
        523    47 -103.086043 -103.079349    0.006693   4.206    0.00032    0.00128
        524    47 -103.086143 -103.079021    0.007122   4.206    0.00028    0.00130
        525    48 -103.086248 -103.078768    0.007480   4.206    0.00027    0.00128
        526    42 -103.086355 -103.078752    0.007603   4.206    0.00027    0.00124
        527    42 -103.086460 -103.078936    0.007524   4.206    0.00027    0.00117
        528    42 -103.086558 -103.079341    0.007217   4.206    0.00028    0.00113
        529    47 -103.086645 -103.080172    0.006472   4.206    0.00029    0.00102
        530    47 -103.086710 -103.080900    0.005810   4.206    0.00031    0.00090
        531    42 -103.086759 -103.081696    0.005063   4.206    0.00032    0.00078
        532    42 -103.086796 -103.082539    0.004257   4.206    0.00032    0.00065
        533    42 -103.086825 -103.083418    0.003407   4.206    0.00033    0.00052
        534    42 -103.086843 -103.084317    0.002526   4.206    0.00033    0.00041
        535    42 -103.086848 -103.085233    0.001615   4.206    0.00033    0.00032
        536    42 -103.086840 -103.086157    0.000683   4.206    0.00032    0.00030
        537    42 -103.086817 -103.087072    0.000254   4.206    0.00031    0.00035
        538    42 -103.086781 -103.087948    0.001166   4.206    0.00030    0.00043
        539    42 -103.086734 -103.088752    0.002018   4.206    0.00029    0.00052
        540    42 -103.086677 -103.089453    0.002777   4.206    0.00028    0.00061
        541    47 -103.086613 -103.090034    0.003421   4.206    0.00027    0.00068
        542    42 -103.086546 -103.090465    0.003919   4.206    0.00026    0.00074
        543    47 -103.086477 -103.090783    0.004306   4.206    0.00025    0.00078
        544    47 -103.086407 -103.090950    0.004542   4.206    0.00024    0.00081
        545    47 -103.086340 -103.091013    0.004673   4.206    0.00024    0.00082
        546    48 -103.086274 -103.090958    0.004683   4.206    0.00023    0.00081
        547    49 -103.086213 -103.090807    0.004594   4.206    0.00023    0.00078
        548    47 -103.086156 -103.090560    0.004404   4.206    0.00024    0.00074
        549    47 -103.086105 -103.090229    0.004124   4.206    0.00024    0.00069
        550    47 -103.086061 -103.089818    0.003756   4.206    0.00025    0.00062
        551    47 -103.086024 -103.089338    0.003314   4.206    0.00026    0.00055
        552    47 -103.085995 -103.088801    0.002806   4.206    0.00027    0.00047
        553    47 -103.085975 -103.088224    0.002249   4.206    0.00028    0.00038
        554    47 -103.085962 -103.087621    0.001659   4.206    0.00028    0.00030
        555    47 -103.085959 -103.087010    0.001052   4.206    0.00029    0.00024
        556    47 -103.085962 -103.086404    0.000442   4.206    0.00029    0.00021
        557    47 -103.085974 -103.085818    0.000156   4.206    0.00029    0.00022
        558    47 -103.085993 -103.085260    0.000732   4.206    0.00028    0.00027
        559    47 -103.086017 -103.084742    0.001275   4.206    0.00027    0.00033
        560    47 -103.086047 -103.084271    0.001776   4.206    0.00026    0.00039
        561    49 -103.086083 -103.083856    0.002227   4.206    0.00025    0.00044
        562    47 -103.086122 -103.083503    0.002619   4.206    0.00024    0.00049
        563    47 -103.086164 -103.083220    0.002944   4.206    0.00023    0.00052
        564    47 -103.086208 -103.083011    0.003197   4.206    0.00022    0.00055
        565    47 -103.086254 -103.082882    0.003372   4.206    0.00022    0.00056
        566    47 -103.086300 -103.082835    0.003466   4.206    0.00021    0.00056
        567    47 -103.086345 -103.082869    0.003477   4.206    0.00021    0.00055
        568    47 -103.086389 -103.082982    0.003407   4.206    0.00021    0.00052
        569    47 -103.086429 -103.083170    0.003258   4.206    0.00021    0.00049
        570    47 -103.086465 -103.083428    0.003037   4.206    0.00022    0.00044
        571    47 -103.086496 -103.083747    0.002749   4.206    0.00022    0.00039
        572    47 -103.086522 -103.084117    0.002405   4.206    0.00022    0.00034
        573    47 -103.086542 -103.084528    0.002013   4.206    0.00023    0.00028
        574    47 -103.086555 -103.084969    0.001585   4.206    0.00023    0.00022
        575    47 -103.086561 -103.085428    0.001134   4.206    0.00023    0.00017
        576    52 -103.086561 -103.085893    0.000668   4.206    0.00023    0.00014
        577    49 -103.086555 -103.086345    0.000210   4.206    0.00023    0.00014
        578    53 -103.086542 -103.086787    0.000244   4.206    0.00022    0.00017
        579    49 -103.086525 -103.087188    0.000663   4.206    0.00022    0.00021
        580    47 -103.086502 -103.087558    0.001056   4.206    0.00022    0.00025
        581    47 -103.086476 -103.087874    0.001399   4.206    0.00021    0.00029
        582    47 -103.086446 -103.088139    0.001693   4.206    0.00021    0.00033
        583    48 -103.086414 -103.088342    0.001928   4.206    0.00021    0.00035
        584    49 -103.086381 -103.088484    0.002103   4.206    0.00020    0.00037
        585    48 -103.086347 -103.088562    0.002215   4.206    0.00020    0.00038
        586    49 -103.086314 -103.088578    0.002264   4.206    0.00020    0.00038
        587    49 -103.086282 -103.088534    0.002251   4.206    0.00020    0.00038
        588    49 -103.086252 -103.088433    0.002181   4.206    0.00020    0.00036
        589    48 -103.086225 -103.088282    0.002057   4.206    0.00021    0.00034
        590    48 -103.086200 -103.088086    0.001886   4.206    0.00021    0.00031
        591    48 -103.086180 -103.087852    0.001672   4.206    0.00021    0.00028
        592    52 -103.086163 -103.087587    0.001424   4.206    0.00021    0.00025
        593    47 -103.086150 -103.087300    0.001150   4.206    0.00021    0.00021
        594    48 -103.086142 -103.086999    0.000857   4.206    0.00022    0.00018
        595    52 -103.086138 -103.086690    0.000552   4.206    0.00022    0.00015
        596    53 -103.086138 -103.086385    0.000247   4.206    0.00022    0.00013
        597    52 -103.086143 -103.086087    0.000056   4.206    0.00021    0.00013
        598    56 -103.086151 -103.085805    0.000346   4.206    0.00021    0.00014
        599    53 -103.086163 -103.085544    0.000618   4.206    0.00021    0.00016

        ==> Orbital Optimization <==

            Orbital Optimization converged in  17 iterations 
            Total energy change: -8.029099e-05
            Final gradient norm: 5.041334e-05

        600    53 -103.086258 -103.332751    0.246493   4.790    0.00021    0.00018
        601    78 -103.082471 -103.335740    0.253269   4.790    0.00785    0.04281
        602    53 -103.078944 -103.278538    0.199593   4.790    0.00956    0.02936
        603    47 -103.076183 -103.214354    0.138170   4.790    0.00832    0.02406
        604    41 -103.074676 -103.156592    0.081916   4.790    0.00691    0.02012
        605    41 -103.074350 -103.113662    0.039312   4.790    0.00636    0.01642
        606    41 -103.074997 -103.083744    0.008747   4.790    0.00603    0.01434
        607    41 -103.076264 -103.062485    0.013779   4.790    0.00544    0.01549
        608    41 -103.077896 -103.043610    0.034286   4.790    0.00480    0.01776
        609    41 -103.078847 -103.026267    0.052580   4.790    0.00432    0.01892
        610    42 -103.080275 -103.019339    0.060936   4.790    0.00398    0.01838
        611    42 -103.081653 -103.013309    0.068345   4.790    0.00366    0.01835
        612    41 -103.083247 -103.011413    0.071834   4.790    0.00306    0.01817
        613    42 -103.084803 -103.008802    0.076001   4.790    0.00273    0.01763
        614    42 -103.086151 -103.009808    0.076343   4.790    0.00291    0.01578
        615    41 -103.087309 -103.013029    0.074280   4.790    0.00323    0.01316
        616    38 -103.088200 -103.021170    0.067030   4.790    0.00308    0.01100
        617    42 -103.088616 -103.027874    0.060741   4.790    0.00286    0.01090
        618    42 -103.089472 -103.034897    0.054574   4.790    0.00235    0.01076
        619    41 -103.089977 -103.038183    0.051794   4.790    0.00220    0.01117
        620    41 -103.090247 -103.049631    0.040616   4.790    0.00184    0.01097
        621    42 -103.090265 -103.058458    0.031807   4.790    0.00190    0.01027
        622    41 -103.090398 -103.067977    0.022421   4.790    0.00201    0.00883
        623    42 -103.090266 -103.073775    0.016491   4.790    0.00201    0.00779
        624    47 -103.089515 -103.081118    0.008396   4.790    0.00179    0.00653
        625    47 -103.089297 -103.086261    0.003036   4.790    0.00183    0.00505
        626    47 -103.088920 -103.092510    0.003590   4.790    0.00186    0.00407
        627    47 -103.088799 -103.098362    0.009563   4.790    0.00166    0.00461
        628    42 -103.088585 -103.104991    0.016406   4.790    0.00151    0.00476
        629    43 -103.088366 -103.109519    0.021153   4.790    0.00138    0.00482
        630    42 -103.088091 -103.111753    0.023662   4.790    0.00129    0.00506
        631    47 -103.087810 -103.113376    0.025566   4.790    0.00119    0.00540
        632    47 -103.087522 -103.114582    0.027060   4.790    0.00110    0.00563
        633    42 -103.087267 -103.115163    0.027896   4.790    0.00100    0.00577
        634    43 -103.086906 -103.115550    0.028644   4.790    0.00068    0.00589
        635    47 -103.086701 -103.116670    0.029969   4.790    0.00060    0.00559
        636    47 -103.086469 -103.115934    0.029465   4.790    0.00060    0.00539
        637    42 -103.086255 -103.115518    0.029263   4.790    0.00064    0.00515
        638    42 -103.085984 -103.114367    0.028383   4.790    0.00070    0.00484
        639    42 -103.085721 -103.113053    0.027332   4.790    0.00079    0.00450
        640    39 -103.085410 -103.111582    0.026172   4.790    0.00091    0.00411
        641    39 -103.085126 -103.109724    0.024598   4.790    0.00103    0.00366
        642    39 -103.084857 -103.106906    0.022048   4.790    0.00110    0.00321
        643    39 -103.084642 -103.103088    0.018447   4.790    0.00112    0.00280
        644    42 -103.084486 -103.098543    0.014056   4.790    0.00111    0.00244
        645    37 -103.084399 -103.093555    0.009156   4.790    0.00107    0.00219
        646    42 -103.084372 -103.088671    0.004299   4.790    0.00100    0.00200
        647    45 -103.084423 -103.083671    0.000752   4.790    0.00092    0.00189
        648    45 -103.084545 -103.078915    0.005629   4.790    0.00085    0.00189
        649    47 -103.084726 -103.074552    0.010174   4.790    0.00077    0.00204
        650    47 -103.084958 -103.070777    0.014181   4.790    0.00069    0.00233
        651    47 -103.085224 -103.067647    0.017578   4.790    0.00061    0.00268
        652    47 -103.085496 -103.065147    0.020348   4.790    0.00052    0.00299
        653    47 -103.085739 -103.063417    0.022322   4.790    0.00046    0.00321
        654    47 -103.086061 -103.062647    0.023414   4.790    0.00041    0.00333
        655    47 -103.086343 -103.062548    0.023795   4.790    0.00041    0.00334
        656    46 -103.086629 -103.062930    0.023699   4.790    0.00042    0.00326
        657    43 -103.086884 -103.064070    0.022814   4.790    0.00046    0.00312
        658    43 -103.087126 -103.065726    0.021400   4.790    0.00049    0.00293
        659    42 -103.087331 -103.067985    0.019347   4.790    0.00051    0.00279
        660    47 -103.087495 -103.071141    0.016354   4.790    0.00052    0.00253
        661    42 -103.087603 -103.074042    0.013561   4.790    0.00054    0.00230
        662    42 -103.087667 -103.077249    0.010418   4.790    0.00055    0.00207
        663    42 -103.087687 -103.080355    0.007332   4.790    0.00056    0.00185
        664    42 -103.087670 -103.083417    0.004254   4.790    0.00056    0.00166
        665    42 -103.087618 -103.086217    0.001401   4.790    0.00056    0.00151
        666    42 -103.087538 -103.088739    0.001201   4.790    0.00056    0.00142
        667    42 -103.087434 -103.090909    0.003476   4.790    0.00055    0.00139
        668    42 -103.087313 -103.092732    0.005419   4.790    0.00055    0.00141
        669    42 -103.087183 -103.094205    0.007022   4.790    0.00055    0.00146
        670    47 -103.087049 -103.095356    0.008307   4.790    0.00054    0.00153
        671    42 -103.086916 -103.096205    0.009289   4.790    0.00054    0.00162
        672    47 -103.086787 -103.096806    0.010019   4.790    0.00052    0.00170
        673    47 -103.086664 -103.097172    0.010508   4.790    0.00050    0.00178
        674    47 -103.086548 -103.097346    0.010798   4.790    0.00048    0.00184
        675    49 -103.086441 -103.097333    0.010893   4.790    0.00045    0.00190
        676    49 -103.086340 -103.097152    0.010812   4.790    0.00042    0.00195
        677    47 -103.086249 -103.096798    0.010550   4.790    0.00039    0.00199
        678    43 -103.086166 -103.096277    0.010111   4.790    0.00037    0.00201
        679    43 -103.086093 -103.095591    0.009498   4.790    0.00036    0.00201
        680    43 -103.086031 -103.094749    0.008718   4.790    0.00037    0.00198
        681    43 -103.085980 -103.093771    0.007791   4.790    0.00039    0.00191
        682    47 -103.085941 -103.092678    0.006737   4.790    0.00042    0.00180
        683    47 -103.085915 -103.091491    0.005577   4.790    0.00045    0.00166
        684    47 -103.085900 -103.090259    0.004359   4.790    0.00047    0.00149
        685    47 -103.085897 -103.089009    0.003112   4.790    0.00049    0.00129
        686    47 -103.085903 -103.087815    0.001912   4.790    0.00050    0.00108
        687    47 -103.085913 -103.086762    0.000849   4.790    0.00050    0.00085
        688    47 -103.085927 -103.085786    0.000141   4.790    0.00049    0.00070
        689    47 -103.085947 -103.084837    0.001109   4.790    0.00046    0.00068
        690    47 -103.085972 -103.083936    0.002036   4.790    0.00043    0.00074
        691    47 -103.086004 -103.083105    0.002899   4.790    0.00039    0.00084
        692    47 -103.086043 -103.082368    0.003674   4.790    0.00036    0.00097
        693    47 -103.086085 -103.081925    0.004160   4.790    0.00033    0.00109
        694    47 -103.086129 -103.081377    0.004751   4.790    0.00030    0.00118
        695    48 -103.086175 -103.081008    0.005167   4.790    0.00027    0.00126
        696    48 -103.086224 -103.080643    0.005580   4.790    0.00025    0.00130
        697    47 -103.086276 -103.080379    0.005897   4.790    0.00023    0.00133
        698    47 -103.086332 -103.080147    0.006185   4.790    0.00023    0.00132
        699    47 -103.086391 -103.079989    0.006402   4.790    0.00023    0.00130
        700    42 -103.086454 -103.079894    0.006560   4.790    0.00023    0.00126
        701    42 -103.086520 -103.079905    0.006615   4.790    0.00025    0.00120
        702    42 -103.086588 -103.080021    0.006567   4.790    0.00025    0.00115
        703    47 -103.086648 -103.080404    0.006244   4.790    0.00026    0.00106
        704    47 -103.086705 -103.080884    0.005821   4.790    0.00027    0.00096
        705    47 -103.086759 -103.081458    0.005301   4.790    0.00027    0.00085
        706    47 -103.086805 -103.082179    0.004626   4.790    0.00028    0.00073
        707    47 -103.086843 -103.083013    0.003830   4.790    0.00028    0.00060
        708    47 -103.086869 -103.083958    0.002911   4.790    0.00027    0.00049
        709    47 -103.086884 -103.084979    0.001905   4.790    0.00027    0.00041
        710    47 -103.086886 -103.086046    0.000840   4.790    0.00026    0.00039
        711    47 -103.086874 -103.087121    0.000247   4.790    0.00026    0.00041
        712    47 -103.086848 -103.088161    0.001313   4.790    0.00025    0.00047
        713    47 -103.086810 -103.089128    0.002318   4.790    0.00025    0.00053
        714    48 -103.086760 -103.089982    0.003222   4.790    0.00024    0.00060
        715    46 -103.086703 -103.090694    0.003992   4.790    0.00024    0.00067
        716    48 -103.086639 -103.091247    0.004608   4.790    0.00023    0.00073
        717    48 -103.086572 -103.091625    0.005053   4.790    0.00023    0.00078
        718    49 -103.086505 -103.091833    0.005328   4.790    0.00022    0.00082
        719    52 -103.086440 -103.091872    0.005432   4.790    0.00022    0.00084
        720    48 -103.086378 -103.091758    0.005379   4.790    0.00021    0.00085
        721    48 -103.086323 -103.091504    0.005182   4.790    0.00021    0.00085
        722    48 -103.086274 -103.091132    0.004858   4.790    0.00021    0.00083
        723    48 -103.086233 -103.090660    0.004428   4.790    0.00022    0.00080
        724    48 -103.086199 -103.090110    0.003910   4.790    0.00022    0.00075
        725    52 -103.086174 -103.089501    0.003327   4.790    0.00023    0.00070
        726    52 -103.086157 -103.088857    0.002699   4.790    0.00023    0.00063
        727    48 -103.086148 -103.088195    0.002047   4.790    0.00024    0.00056
        728    48 -103.086146 -103.087534    0.001387   4.790    0.00025    0.00049
        729    49 -103.086150 -103.086891    0.000740   4.790    0.00025    0.00041
        730    48 -103.086161 -103.086280    0.000119   4.790    0.00025    0.00035
        731    48 -103.086176 -103.085714    0.000462   4.790    0.00025    0.00030
        732    48 -103.086195 -103.085202    0.000993   4.790    0.00025    0.00028
        733    48 -103.086218 -103.084753    0.001465   4.790    0.00024    0.00029
        734    48 -103.086243 -103.084371    0.001873   4.790    0.00024    0.00033
        735    49 -103.086270 -103.084057    0.002213   4.790    0.00023    0.00038
        736    48 -103.086297 -103.083812    0.002486   4.790    0.00022    0.00043
        737    49 -103.086325 -103.083633    0.002692   4.790    0.00021    0.00048
        738    48 -103.086353 -103.083518    0.002834   4.790    0.00020    0.00053
        739    47 -103.086379 -103.083462    0.002918   4.790    0.00019    0.00057
        740    47 -103.086405 -103.083459    0.002945   4.790    0.00018    0.00060
        741    52 -103.086428 -103.083504    0.002924   4.790    0.00017    0.00062
        742    52 -103.086451 -103.083592    0.002859   4.790    0.00017    0.00063
        743    52 -103.086472 -103.083719    0.002753   4.790    0.00017    0.00063
        744    48 -103.086491 -103.083878    0.002613   4.790    0.00017    0.00061
        745    48 -103.086508 -103.084067    0.002441   4.790    0.00018    0.00059
        746    48 -103.086523 -103.084282    0.002242   4.790    0.00018    0.00055
        747    48 -103.086537 -103.084517    0.002020   4.790    0.00019    0.00050
        748    49 -103.086548 -103.084771    0.001777   4.790    0.00020    0.00044
        749    48 -103.086557 -103.085039    0.001518   4.790    0.00020    0.00038
        750    48 -103.086564 -103.085318    0.001247   4.790    0.00020    0.00031
        751    49 -103.086569 -103.085604    0.000965   4.790    0.00021    0.00025
        752    48 -103.086572 -103.085893    0.000678   4.790    0.00021    0.00019
        753    49 -103.086572 -103.086182    0.000390   4.790    0.00021    0.00015
        754    48 -103.086570 -103.086467    0.000102   4.790    0.00021    0.00015
        755    52 -103.086565 -103.086745    0.000180   4.790    0.00020    0.00018
        756    49 -103.086559 -103.087009    0.000450   4.790    0.00020    0.00023
        757    47 -103.086549 -103.087260    0.000711   4.790    0.00020    0.00028
        758    48 -103.086538 -103.087490    0.000952   4.790    0.00019    0.00033
        759    48 -103.086525 -103.087700    0.001175   4.790    0.00019    0.00037
        760    48 -103.086510 -103.087882    0.001372   4.790    0.00018    0.00040
        761    48 -103.086493 -103.088035    0.001543   4.790    0.00018    0.00043
        762    52 -103.086475 -103.088156    0.001681   4.790    0.00018    0.00045
        763    52 -103.086455 -103.088240    0.001785   4.790    0.00017    0.00046
        764    52 -103.086435 -103.088287    0.001851   4.790    0.00017    0.00046
        765    52 -103.086416 -103.088291    0.001876   4.790    0.00017    0.00045
        766    52 -103.086395 -103.088256    0.001861   4.790    0.00017    0.00043
        767    52 -103.086377 -103.088177    0.001801   4.790    0.00017    0.00040
        768    52 -103.086358 -103.088059    0.001701   4.790    0.00018    0.00037
        769    52 -103.086342 -103.087900    0.001558   4.790    0.00018    0.00033
        770    53 -103.086328 -103.087705    0.001377   4.790    0.00018    0.00028
        771    53 -103.086316 -103.087479    0.001164   4.790    0.00018    0.00023
        772    52 -103.086306 -103.087228    0.000922   4.790    0.00018    0.00018
        773    52 -103.086300 -103.086958    0.000658   4.790    0.00018    0.00014
        774    52 -103.086297 -103.086677    0.000380   4.790    0.00018    0.00011
        775    60 -103.086297 -103.086392    0.000095   4.790    0.00018    0.00010
        776    59 -103.086300 -103.086112    0.000188   4.790    0.00018    0.00013
        777    59 -103.086305 -103.085843    0.000462   4.790    0.00018    0.00016
        778    52 -103.086313 -103.085593    0.000720   4.790    0.00017    0.00020
        779    52 -103.086324 -103.085368    0.000956   4.790    0.00017    0.00024
        780    52 -103.086336 -103.085172    0.001164   4.790    0.00017    0.00028
        781    52 -103.086350 -103.085009    0.001341   4.790    0.00017    0.00030
        782    52 -103.086365 -103.084881    0.001484   4.790    0.00017    0.00032
        783    53 -103.086381 -103.084790    0.001591   4.790    0.00016    0.00034
        784    52 -103.086397 -103.084735    0.001662   4.790    0.00016    0.00034
        785    52 -103.086413 -103.084715    0.001698   4.790    0.00016    0.00034
        786    52 -103.086428 -103.084728    0.001700   4.790    0.00016    0.00035
        787    52 -103.086438 -103.084828    0.001610   4.790    0.00016    0.00034
        788    52 -103.086449 -103.084903    0.001546   4.790    0.00016    0.00033
        789    52 -103.086458 -103.085019    0.001439   4.790    0.00016    0.00031
        790    52 -103.086467 -103.085132    0.001335   4.790    0.00016    0.00029
        791    55 -103.086474 -103.085270    0.001203   4.790    0.00017    0.00027
        792    55 -103.086479 -103.085415    0.001064   4.790    0.00017    0.00025
        793    52 -103.086483 -103.085573    0.000910   4.790    0.00017    0.00022
        794    53 -103.086486 -103.085733    0.000753   4.790    0.00017    0.00019
        795    52 -103.086487 -103.085896    0.000592   4.790    0.00017    0.00016
        796    53 -103.086488 -103.086054    0.000434   4.790    0.00017    0.00014
        797    55 -103.086487 -103.086208    0.000279   4.790    0.00017    0.00011
        798    55 -103.086485 -103.086352    0.000132   4.790    0.00017    0.00016
        799    52 -103.086477 -103.086549    0.000072   4.790    0.00017    0.00017

        ==> Orbital Optimization <==

            Orbital Optimization converged in  15 iterations 
            Total energy change: -1.188670e-05
            Final gradient norm: 4.262585e-05

        800    48 -103.086477 -103.194750    0.108273   4.373    0.00016    0.00018
        801    75 -103.085340 -103.174829    0.089489   4.373    0.00383    0.01739
        802    53 -103.083868 -103.152412    0.068544   4.373    0.00430    0.01151
        803    47 -103.082578 -103.129670    0.047092   4.373    0.00339    0.00956
        804    41 -103.081951 -103.110071    0.028120   4.373    0.00289    0.00761
        805    38 -103.081858 -103.094212    0.012355   4.373    0.00267    0.00653
        806    38 -103.082002 -103.081988    0.000014   4.373    0.00246    0.00628
        807    38 -103.082327 -103.074006    0.008321   4.373    0.00229    0.00644
        808    37 -103.082780 -103.068540    0.014240   4.373    0.00215    0.00661
        809    41 -103.083393 -103.065052    0.018341   4.373    0.00197    0.00668
        810    42 -103.083974 -103.062014    0.021960   4.373    0.00179    0.00682
[...]
       1375    53 -103.086360 -103.086299    0.000061  17.056    0.00009    0.00016
       1376    54 -103.086360 -103.086298    0.000062  17.056    0.00009    0.00016
       1377    53 -103.086360 -103.086296    0.000064  17.056    0.00009    0.00016
       1378    53 -103.086360 -103.086296    0.000064  17.056    0.00009    0.00016
       1379    54 -103.086360 -103.086295    0.000065  17.056    0.00009    0.00016
       1380    53 -103.086360 -103.086294    0.000066  17.056    0.00009    0.00016
       1381    53 -103.086360 -103.086293    0.000067  17.056    0.00009    0.00016
       1382    53 -103.086360 -103.086293    0.000067  17.056    0.00009    0.00016
       1383    53 -103.086360 -103.086291    0.000069  17.056    0.00009    0.00016
       1384    53 -103.086360 -103.086290    0.000070  17.056    0.00009    0.00016
       1385    53 -103.086360 -103.086287    0.000072  17.056    0.00009    0.00016
       1386    53 -103.086360 -103.086286    0.000074  17.056    0.00009    0.00016
       1387    53 -103.086359 -103.086284    0.000076  17.056    0.00009    0.00015
       1388    53 -103.086359 -103.086281    0.000078  17.056    0.00009    0.00015
       1389    53 -103.086359 -103.086279    0.000080  17.056    0.00009    0.00015
       1390    53 -103.086359 -103.086277    0.000082  17.056    0.00009    0.00015
       1391    53 -103.086359 -103.086275    0.000084  17.056    0.00009    0.00015
       1392    53 -103.086359 -103.086274    0.000085  17.056    0.00009    0.00015
       1393    53 -103.086359 -103.086272    0.000087  17.056    0.00009    0.00015
       1394    53 -103.086359 -103.086272    0.000088  17.056    0.00009    0.00015
       1395    53 -103.086359 -103.086271    0.000088  17.056    0.00009    0.00015
       1396    53 -103.086359 -103.086272    0.000088  17.056    0.00009    0.00015
       1397    53 -103.086359 -103.086273    0.000086  17.056    0.00009    0.00015
       1398    53 -103.086359 -103.086274    0.000085  17.056    0.00009    0.00015
       1399    53 -103.086359 -103.086276    0.000084  17.056    0.00009    0.00015

        ==> Orbital Optimization <==

            Orbital Optimization converged in   7 iterations 
            Total energy change: -2.036591e-07
            Final gradient norm: 3.830420e-05

       1400    53 -103.086359 -103.096391    0.010031  10.626    0.00009    0.00015
       1401    65 -103.086331 -103.092790    0.006459  10.626    0.00018    0.00137
       1402    53 -103.086272 -103.091034    0.004762  10.626    0.00017    0.00089
       1403    52 -103.086231 -103.089447    0.003216  10.626    0.00015    0.00075
       1404    53 -103.086219 -103.088030    0.001811  10.626    0.00014    0.00066
       1405    49 -103.086224 -103.086826    0.000602  10.626    0.00015    0.00060
       1406    45 -103.086233 -103.085900    0.000333  10.626    0.00015    0.00055
       1407    45 -103.086241 -103.085324    0.000917  10.626    0.00015    0.00051
       1408    47 -103.086251 -103.084978    0.001273  10.626    0.00015    0.00051
       1409    47 -103.086264 -103.084731    0.001533  10.626    0.00014    0.00052
       1410    49 -103.086279 -103.084492    0.001788  10.626    0.00014    0.00052
       1411    46 -103.086298 -103.084261    0.002038  10.626    0.00013    0.00053
       1412    48 -103.086319 -103.084066    0.002253  10.626    0.00012    0.00055
       1413    49 -103.086340 -103.083944    0.002397  10.626    0.00011    0.00057
       1414    53 -103.086361 -103.083907    0.002454  10.626    0.00010    0.00056
       1415    51 -103.086380 -103.083961    0.002420  10.626    0.00009    0.00054
       1416    51 -103.086397 -103.084102    0.002295  10.626    0.00009    0.00050
       1417    53 -103.086411 -103.084325    0.002086  10.626    0.00008    0.00045
       1418    54 -103.086422 -103.084621    0.001801  10.626    0.00008    0.00038
       1419    54 -103.086431 -103.084979    0.001452  10.626    0.00008    0.00033
       1420    53 -103.086436 -103.085387    0.001050  10.626    0.00008    0.00028
       1421    47 -103.086439 -103.085837    0.000602  10.626    0.00008    0.00026
       1422    47 -103.086438 -103.086294    0.000144  10.626    0.00007    0.00026
       1423    47 -103.086434 -103.086738    0.000304  10.626    0.00007    0.00027
       1424    47 -103.086428 -103.087151    0.000723  10.626    0.00007    0.00029
       1425    47 -103.086418 -103.087521    0.001103  10.626    0.00008    0.00032
       1426    47 -103.086407 -103.087835    0.001428  10.626    0.00008    0.00034
       1427    48 -103.086394 -103.088080    0.001686  10.626    0.00008    0.00035
       1428    48 -103.086380 -103.088247    0.001867  10.626    0.00009    0.00036
       1429    47 -103.086366 -103.088328    0.001962  10.626    0.00009    0.00036
       1430    43 -103.086351 -103.088333    0.001982  10.626    0.00010    0.00035
       1431    47 -103.086338 -103.088257    0.001919  10.626    0.00010    0.00033
       1432    45 -103.086326 -103.088065    0.001739  10.626    0.00011    0.00030
       1433    47 -103.086316 -103.087814    0.001498  10.626    0.00011    0.00028
       1434    48 -103.086308 -103.087502    0.001194  10.626    0.00011    0.00026
       1435    42 -103.086303 -103.087163    0.000860  10.626    0.00011    0.00024
       1436    42 -103.086300 -103.086813    0.000513  10.626    0.00011    0.00022
       1437    42 -103.086301 -103.086469    0.000168  10.626    0.00011    0.00022
       1438    42 -103.086303 -103.086145    0.000158  10.626    0.00011    0.00022
       1439    47 -103.086308 -103.085854    0.000454  10.626    0.00011    0.00022
       1440    42 -103.086315 -103.085598    0.000716  10.626    0.00011    0.00023
       1441    47 -103.086323 -103.085395    0.000927  10.626    0.00010    0.00024
       1442    47 -103.086332 -103.085235    0.001096  10.626    0.00010    0.00025
       1443    48 -103.086340 -103.085132    0.001208  10.626    0.00010    0.00025
       1444    47 -103.086349 -103.085091    0.001258  10.626    0.00009    0.00025
       1445    47 -103.086357 -103.085105    0.001252  10.626    0.00009    0.00024
       1446    48 -103.086365 -103.085155    0.001210  10.626    0.00009    0.00023
       1447    47 -103.086371 -103.085240    0.001131  10.626    0.00009    0.00021
       1448    47 -103.086377 -103.085356    0.001021  10.626    0.00009    0.00020
       1449    48 -103.086382 -103.085502    0.000880  10.626    0.00009    0.00019
       1450    48 -103.086385 -103.085670    0.000715  10.626    0.00008    0.00018
       1451    47 -103.086387 -103.085853    0.000534  10.626    0.00008    0.00018
       1452    47 -103.086387 -103.086041    0.000346  10.626    0.00008    0.00018
       1453    47 -103.086386 -103.086225    0.000162  10.626    0.00008    0.00018
       1454    48 -103.086384 -103.086394    0.000009  10.626    0.00009    0.00018
       1455    47 -103.086381 -103.086540    0.000159  10.626    0.00009    0.00018
       1456    47 -103.086378 -103.086658    0.000281  10.626    0.00009    0.00018
       1457    47 -103.086374 -103.086746    0.000372  10.626    0.00009    0.00017
       1458    47 -103.086369 -103.086802    0.000433  10.626    0.00009    0.00017
       1459    47 -103.086365 -103.086828    0.000463  10.626    0.00010    0.00016
       1460    47 -103.086361 -103.086828    0.000467  10.626    0.00010    0.00016
       1461    47 -103.086358 -103.086806    0.000449  10.626    0.00010    0.00015
       1462    47 -103.086355 -103.086767    0.000413  10.626    0.00010    0.00015
       1463    47 -103.086352 -103.086716    0.000364  10.626    0.00010    0.00014
       1464    47 -103.086351 -103.086658    0.000307  10.626    0.00010    0.00014
       1465    47 -103.086350 -103.086596    0.000246  10.626    0.00010    0.00014
       1466    47 -103.086349 -103.086534    0.000184  10.626    0.00010    0.00014
       1467    47 -103.086349 -103.086474    0.000125  10.626    0.00010    0.00014
       1468    45 -103.086349 -103.086420    0.000071  10.626    0.00010    0.00014
       1469    47 -103.086350 -103.086372    0.000022  10.626    0.00010    0.00014
       1470    47 -103.086350 -103.086331    0.000020  10.626    0.00009    0.00014
       1471    47 -103.086351 -103.086297    0.000054  10.626    0.00009    0.00014
       1472    48 -103.086352 -103.086270    0.000082  10.626    0.00009    0.00013
       1473    47 -103.086353 -103.086250    0.000103  10.626    0.00009    0.00013
       1474    47 -103.086354 -103.086236    0.000118  10.626    0.00009    0.00012
       1475    47 -103.086354 -103.086227    0.000127  10.626    0.00009    0.00012
       1476    47 -103.086355 -103.086222    0.000133  10.626    0.00009    0.00011
       1477    47 -103.086355 -103.086219    0.000136  10.626    0.00009    0.00011
       1478    48 -103.086356 -103.086218    0.000137  10.626    0.00009    0.00011
       1479    47 -103.086356 -103.086218    0.000138  10.626    0.00009    0.00011
       1480    47 -103.086356 -103.086217    0.000138  10.626    0.00009    0.00011
       1481    46 -103.086356 -103.086216    0.000140  10.626    0.00009    0.00011
       1482    47 -103.086356 -103.086212    0.000143  10.626    0.00009    0.00011
       1483    47 -103.086355 -103.086207    0.000149  10.626    0.00009    0.00011
       1484    47 -103.086355 -103.086199    0.000156  10.626    0.00009    0.00011
       1485    47 -103.086355 -103.086189    0.000166  10.626    0.00009    0.00011
       1486    46 -103.086355 -103.086178    0.000177  10.626    0.00009    0.00011
       1487    45 -103.086355 -103.086165    0.000190  10.626    0.00009    0.00010
       1488    44 -103.086355 -103.086152    0.000203  10.626    0.00009    0.00010
       1489    45 -103.086356 -103.086140    0.000216  10.626    0.00009    0.00010
       1490    45 -103.086356 -103.086129    0.000227  10.626    0.00009    0.00010
       1491    45 -103.086357 -103.086121    0.000236  10.626    0.00009    0.00009
       1492    47 -103.086358 -103.086116    0.000242  10.626    0.00009    0.00009
       1493    45 -103.086358 -103.086116    0.000243  10.626    0.00009    0.00009
       1494    45 -103.086359 -103.086120    0.000240  10.626    0.00009    0.00009
       1495    46 -103.086360 -103.086129    0.000231  10.626    0.00009    0.00009
       1496    45 -103.086361 -103.086143    0.000217  10.626    0.00009    0.00009
       1497    45 -103.086362 -103.086163    0.000198  10.626    0.00009    0.00008
       1498    46 -103.086362 -103.086187    0.000175  10.626    0.00009    0.00008
       1499    47 -103.086362 -103.086215    0.000147  10.626    0.00009    0.00008
       1500    45 -103.086363 -103.086246    0.000116  10.626    0.00009    0.00008
       1501    48 -103.086363 -103.086278    0.000084  10.626    0.00009    0.00008

        ==> Orbital Optimization <==

            Orbital Optimization converged in   5 iterations 
            Total energy change: -9.444486e-08
            Final gradient norm: 4.229374e-05

       1502    63 -103.086349 -103.090215    0.003866  10.626    0.00015    0.00087
       1503    53 -103.086316 -103.089106    0.002790  10.626    0.00015    0.00055
       1504    47 -103.086292 -103.088116    0.001824  10.626    0.00013    0.00047
       1505    47 -103.086284 -103.087304    0.001020  10.626    0.00012    0.00041
       1506    46 -103.086286 -103.086660    0.000374  10.626    0.00012    0.00036
       1507    42 -103.086290 -103.086185    0.000106  10.626    0.00013    0.00032
       1508    42 -103.086295 -103.085888    0.000406  10.626    0.00012    0.00031
       1509    43 -103.086301 -103.085694    0.000607  10.626    0.00012    0.00032
       1510    47 -103.086308 -103.085544    0.000765  10.626    0.00012    0.00032
       1511    47 -103.086318 -103.085400    0.000918  10.626    0.00011    0.00033
       1512    47 -103.086328 -103.085282    0.001046  10.626    0.00011    0.00034
       1513    42 -103.086340 -103.085205    0.001135  10.626    0.00010    0.00035
       1514    47 -103.086351 -103.085185    0.001166  10.626    0.00010    0.00035
       1515    47 -103.086361 -103.085207    0.001154  10.626    0.00009    0.00034
       1516    51 -103.086370 -103.085268    0.001102  10.626    0.00009    0.00032
       1517    49 -103.086377 -103.085354    0.001022  10.626    0.00009    0.00028
       1518    47 -103.086382 -103.085462    0.000920  10.626    0.00009    0.00024
       1519    49 -103.086386 -103.085591    0.000795  10.626    0.00008    0.00020
       1520    47 -103.086388 -103.085742    0.000646  10.626    0.00008    0.00016
       1521    47 -103.086390 -103.085914    0.000476  10.626    0.00008    0.00015
       1522    47 -103.086389 -103.086101    0.000289  10.626    0.00008    0.00015
       1523    47 -103.086388 -103.086294    0.000094  10.626    0.00008    0.00017
       1524    47 -103.086385 -103.086483    0.000098  10.626    0.00008    0.00019
       1525    47 -103.086381 -103.086655    0.000274  10.626    0.00008    0.00021
       1526    47 -103.086376 -103.086799    0.000423  10.626    0.00008    0.00022
       1527    47 -103.086370 -103.086907    0.000537  10.626    0.00009    0.00023
       1528    47 -103.086363 -103.086974    0.000611  10.626    0.00009    0.00022
       1529    47 -103.086357 -103.086999    0.000642  10.626    0.00009    0.00021
       1530    43 -103.086351 -103.086981    0.000629  10.626    0.00010    0.00019
       1531    43 -103.086346 -103.086925    0.000579  10.626    0.00010    0.00017
       1532    42 -103.086342 -103.086834    0.000493  10.626    0.00010    0.00014
       1533    42 -103.086338 -103.086719    0.000380  10.626    0.00010    0.00012
       1534    42 -103.086336 -103.086585    0.000248  10.626    0.00010    0.00011
       1535    42 -103.086335 -103.086443    0.000107  10.626    0.00010    0.00011
       1536    42 -103.086336 -103.086301    0.000035  10.626    0.00010    0.00012
       1537    42 -103.086337 -103.086170    0.000168  10.626    0.00010    0.00013
       1538    42 -103.086340 -103.086055    0.000285  10.626    0.00010    0.00014
       1539    45 -103.086343 -103.085962    0.000380  10.626    0.00010    0.00015
       1540    47 -103.086346 -103.085894    0.000452  10.626    0.00010    0.00015
       1541    46 -103.086350 -103.085855    0.000495  10.626    0.00009    0.00015
       1542    47 -103.086354 -103.085841    0.000512  10.626    0.00009    0.00014
       1543    47 -103.086357 -103.085853    0.000504  10.626    0.00009    0.00013
       1544    47 -103.086361 -103.085886    0.000474  10.626    0.00009    0.00012
       1545    47 -103.086363 -103.085938    0.000425  10.626    0.00009    0.00010
       1546    47 -103.086365 -103.086003    0.000362  10.626    0.00009    0.00009
       1547    47 -103.086366 -103.086079    0.000287  10.626    0.00009    0.00008
       1548    47 -103.086367 -103.086160    0.000207  10.626    0.00009    0.00008
       1549    48 -103.086367 -103.086241    0.000126  10.626    0.00009    0.00008
       1550    47 -103.086366 -103.086319    0.000047  10.626    0.00009    0.00009

        ==> Orbital Optimization <==

            Orbital Optimization converged in   3 iterations 
            Total energy change: -2.691482e-08
            Final gradient norm: 4.331333e-05

       1551    57 -103.086359 -103.087869    0.001510  10.626    0.00010    0.00036
       1552    41 -103.086345 -103.087509    0.001164  10.626    0.00010    0.00026
       1553    47 -103.086334 -103.087171    0.000837  10.626    0.00010    0.00024
       1554    47 -103.086329 -103.086891    0.000562  10.626    0.00010    0.00022
       1555    46 -103.086328 -103.086649    0.000321  10.626    0.00010    0.00019
       1556    47 -103.086328 -103.086461    0.000134  10.626    0.00010    0.00016
       1557    47 -103.086328 -103.086328    0.000000  10.626    0.00010    0.00015
       1558    47 -103.086328 -103.086225    0.000103  10.626    0.00010    0.00014
       1559    45 -103.086330 -103.086128    0.000202  10.626    0.00010    0.00013
       1560    47 -103.086333 -103.086028    0.000305  10.626    0.00010    0.00014
       1561    47 -103.086337 -103.085931    0.000405  10.626    0.00010    0.00014
       1562    42 -103.086341 -103.085849    0.000492  10.626    0.00010    0.00016
       1563    42 -103.086346 -103.085791    0.000555  10.626    0.00010    0.00016
       1564    42 -103.086351 -103.085755    0.000596  10.626    0.00009    0.00017
       1565    42 -103.086355 -103.085742    0.000613  10.626    0.00009    0.00016
       1566    47 -103.086360 -103.085750    0.000609  10.626    0.00009    0.00015
       1567    47 -103.086363 -103.085777    0.000586  10.626    0.00009    0.00014
       1568    47 -103.086366 -103.085825    0.000541  10.626    0.00009    0.00012
       1569    42 -103.086369 -103.085891    0.000478  10.626    0.00009    0.00010
       1570    48 -103.086370 -103.085975    0.000395  10.626    0.00008    0.00009
       1571    47 -103.086371 -103.086070    0.000301  10.626    0.00008    0.00008
       1572    48 -103.086371 -103.086175    0.000196  10.626    0.00008    0.00008
       1573    47 -103.086371 -103.086280    0.000090  10.626    0.00008    0.00008

        ==> Orbital Optimization <==

            Orbital Optimization converged in   2 iterations 
            Total energy change: -9.450474e-09
            Final gradient norm: 4.340686e-05


      v2RDM iterations converged!

      v2RDM total spin [S(S+1)]:            -0.000025
    * v2RDM total energy:           -103.086370861461



Properties will be evaluated at   0.000000,   0.000000,   0.000000 Bohr


Properties will be evaluated at   0.000000,   0.000000,   0.000000 Bohr

  Mulliken Charges: (a.u.)

   Center  Symbol    Alpha    Beta     Spin     Total
       1     N     3.50000  3.50000  0.00000 -0.00000
       2     N     3.50000  3.50000  0.00000 -0.00000

   Total alpha =  7.00000, Total beta =  7.00000, Total charge = -0.00000

 # Natural Orbital Occupation Numbers (alpha) #
 Irrep: 1
      1:  1.0000000
      2:  1.0000000
      3:  0.9980036
      4:  0.0000000
      5:  0.0000000
      6:  0.0000000
      7:  0.0000000

 Irrep: 2
      1:  0.0000000

 Irrep: 3
      1:  0.0042294
      2:  0.0000000
      3:  0.0000000

 Irrep: 4
      1:  0.0042289
      2:  0.0000000
      3:  0.0000000

 Irrep: 5
      1:  0.0000000

 Irrep: 6
      1:  1.0000000
      2:  1.0000000
      3:  0.0016848
      4:  0.0000000
      5:  0.0000000
      6:  0.0000000
      7:  0.0000000

 Irrep: 7
      1:  0.9959267
      2:  0.0000000
      3:  0.0000000

 Irrep: 8
      1:  0.9959265
      2:  0.0000000
      3:  0.0000000


 # Natural Orbital Occupation Numbers (beta) #
 Irrep: 1
      1:  1.0000000
      2:  1.0000000
      3:  0.9980061
      4:  0.0000000
      5:  0.0000000
      6:  0.0000000
      7:  0.0000000

 Irrep: 2
      1:  0.0000000

 Irrep: 3
      1:  0.0042396
      2:  0.0000000
      3:  0.0000000

 Irrep: 4
      1:  0.0042391
      2:  0.0000000
      3:  0.0000000

 Irrep: 5
      1:  0.0000000

 Irrep: 6
      1:  1.0000000
      2:  1.0000000
      3:  0.0016704
      4:  0.0000000
      5:  0.0000000
      6:  0.0000000
      7:  0.0000000

 Irrep: 7
      1:  0.9959225
      2:  0.0000000
      3:  0.0000000

 Irrep: 8
      1:  0.9959223
      2:  0.0000000
      3:  0.0000000


*** tstop() called on Eugenes-MacBook-Pro-2.local at Fri Aug 21 15:28:28 2015
Module time:
	user time   =       4.37 seconds =       0.07 minutes
	system time =       0.02 seconds =       0.00 minutes
	total time  =          4 seconds =       0.07 minutes
Total time:
	user time   =       4.98 seconds =       0.08 minutes
	system time =       0.03 seconds =       0.00 minutes
	total time  =          5 seconds =       0.08 minutes

*** PSI4 exiting successfully. Buy a developer a beer!
