    -----------------------------------------------------------------------
          Psi4: An Open-Source Ab Initio Electronic Structure Package
                              Psi4 1.0rc6 Driver

                          Git: Rev {master} a7c1637 dirty

    J. M. Turney, A. C. Simmonett, R. M. Parrish, E. G. Hohenstein,
    F. A. Evangelista, J. T. Fermann, B. J. Mintz, L. A. Burns, J. J. Wilke,
    M. L. Abrams, N. J. Russ, M. L. Leininger, C. L. Janssen, E. T. Seidl,
    W. D. Allen, H. F. Schaefer, R. A. King, E. F. Valeev, C. D. Sherrill,
    and T. D. Crawford, WIREs Comput. Mol. Sci. 2, 556-565 (2012)
    (doi: 10.1002/wcms.93)

                         Additional Contributions by
    A. E. DePrince, U. Bozkaya, A. Yu. Sokolov, D. G. A. Smith, R. Di Remigio,
    R. M. Richard, J. F. Gonthier, H. R. McAlexander, M. Saitow, and
    B. P. Pritchard
    -----------------------------------------------------------------------


    Psi4 started on: Fri Jun  3 15:52:14 2016

    Process ID:  81880
    PSI4DATADIR: /Users/deprince/psi4/install/debug/share/psi4
    Memory level set to 256.000 MB

  ==> Input File <==

--------------------------------------------------------------------------
#! cc-pvdz N2 (6,6) active space Test DQG

# job description:
print '        N2 / cc-pVDZ / DQG(6,6), scf_type = CD / 1e-12, rNN = 0.5 A'

sys.path.insert(0, '../../..')
import v2rdm_casscf

molecule n2 {
0 1
n
n 1 r
}

molecule interloper {
0 1
O
H 1 1.0
H 1 1.0 2 90.0
}

set {
  basis cc-pvdz
  scf_type cd
  cholesky_tolerance 1e-12
  d_convergence      1e-10
  maxiter 500
  restricted_docc [ 2, 0, 0, 0, 0, 2, 0, 0 ]
  active          [ 1, 0, 1, 1, 0, 1, 1, 1 ]
}
set v2rdm_casscf {
  positivity dqg
  r_convergence  1e-5
  e_convergence  1e-6
  maxiter 20000
  #orbopt_frequency    1000
  #mu_update_frequency 1000
}

activate(n2)

n2.r     = 0.5
refscf   = -103.04337420425350 # TEST
refv2rdm = -103.086205379481   # TEST

energy('v2rdm-casscf', molecule=n2)

compare_values(refscf, get_variable("SCF TOTAL ENERGY"), 8, "SCF total energy") # TEST
compare_values(refv2rdm, get_variable("CURRENT ENERGY"), 5, "v2RDM-CASSCF total energy") # TEST

--------------------------------------------------------------------------
/Users/deprince/chem/v2rdm_casscf/v2rdm_casscf.so loaded.
Setting geometry variable r to 0.500000

*** tstart() called on wg-dhcp201d206d180.secure.wireless.fsu.
*** at Fri Jun  3 15:52:15 2016


         ---------------------------------------------------------
                                   SCF
            by Justin Turney, Rob Parrish, and Andy Simmonett
                              RHF Reference
                        1 Threads,    256 MiB Core
         ---------------------------------------------------------

  ==> Geometry <==

    Molecular point group: d2h
    Full point group: D_inf_h

    Geometry (in Angstrom), charge = 0, multiplicity = 1:

       Center              X                  Y                   Z               Mass       
    ------------   -----------------  -----------------  -----------------  -----------------
           N          0.000000000000     0.000000000000    -0.250000000000    14.003074004780
           N          0.000000000000     0.000000000000     0.250000000000    14.003074004780

  Running in d2h symmetry.

  Rotational constants: A = ************  B =      9.63082  C =      9.63082 [cm^-1]
  Rotational constants: A = ************  B = 288724.60708  C = 288724.60708 [MHz]
  Nuclear repulsion =   51.859366441819994

  Charge       = 0
  Multiplicity = 1
  Electrons    = 14
  Nalpha       = 7
  Nbeta        = 7

  ==> Algorithm <==

  SCF Algorithm Type is CD.
  DIIS enabled.
  MOM disabled.
  Fractional occupation disabled.
  Guess Type is CORE.
  Energy threshold   = 1.00e-08
  Density threshold  = 1.00e-10
  Integral threshold = 0.00e+00

  ==> Primary Basis <==

  Basis Set: CC-PVDZ
    Number of shells: 12
    Number of basis function: 28
    Number of Cartesian functions: 30
    Spherical Harmonics?: true
    Max angular momentum: 2

  ==> Pre-Iterations <==

   -------------------------------------------------------
    Irrep   Nso     Nmo     Nalpha   Nbeta   Ndocc  Nsocc
   -------------------------------------------------------
     Ag         7       7       0       0       0       0
     B1g        1       1       0       0       0       0
     B2g        3       3       0       0       0       0
     B3g        3       3       0       0       0       0
     Au         1       1       0       0       0       0
     B1u        7       7       0       0       0       0
     B2u        3       3       0       0       0       0
     B3u        3       3       0       0       0       0
   -------------------------------------------------------
    Total      28      28       7       7       7       0
   -------------------------------------------------------

  ==> Integral Setup <==

  ==> CDJK: Cholesky-decomposed J/K Matrices <==

    J tasked:                     Yes
    K tasked:                     Yes
    wK tasked:                     No
    OpenMP threads:                 1
    Integrals threads:              1
    Memory (MB):                  183
    Algorithm:                   Core
    Integral Cache:              SAVE
    Schwarz Cutoff:             1E-12
    Cholesky tolerance:      1.00E-12
    No. Cholesky vectors:         342

  Minimum eigenvalue in the overlap matrix is 1.5735752976E-04.
  Using Symmetric Orthogonalization.
  SCF Guess: Core (One-Electron) Hamiltonian.

  ==> Iterations <==

                        Total Energy        Delta E     RMS |[F,P]|

    Occupation by irrep:
             Ag   B1g   B2g   B3g    Au   B1u   B2u   B3u 
    DOCC [     3,    0,    0,    0,    0,    2,    1,    1 ]

   @RHF iter   1:   -88.54248632162336   -8.85425e+01   4.57822e-01 
   @RHF iter   2:   -97.65432344860076   -9.11184e+00   2.89351e-01 DIIS
   @RHF iter   3:  -103.02104353617739   -5.36672e+00   2.16155e-02 DIIS
   @RHF iter   4:  -103.04290174334801   -2.18582e-02   2.90864e-03 DIIS
   @RHF iter   5:  -103.04336662616782   -4.64883e-04   3.30426e-04 DIIS
   @RHF iter   6:  -103.04337393110870   -7.30494e-06   4.64105e-05 DIIS
   @RHF iter   7:  -103.04337419566036   -2.64552e-07   1.10338e-05 DIIS
   @RHF iter   8:  -103.04337420419273   -8.53237e-09   8.62477e-07 DIIS
   @RHF iter   9:  -103.04337420425293   -6.01972e-11   7.21357e-08 DIIS
   @RHF iter  10:  -103.04337420425338   -4.54747e-13   2.10812e-09 DIIS
   @RHF iter  11:  -103.04337420425338    0.00000e+00   4.13689e-10 DIIS
   @RHF iter  12:  -103.04337420425338    0.00000e+00   2.77972e-11 DIIS

  ==> Post-Iterations <==

    Orbital Energies (a.u.)
    -----------------------

    Doubly Occupied:                                                      

       1Ag   -16.484161     1B1u  -15.785893     2Ag    -1.444309  
       1B3u   -1.176599     1B2u   -1.176599     2B1u   -0.543616  
       3Ag    -0.524272  

    Virtual:                                                              

       1B3g    0.538181     1B2g    0.538181     2B3u    0.594641  
       2B2u    0.594641     3B1u    0.614128     4Ag     0.726476  
       5Ag     1.055370     2B3g    1.450590     2B2g    1.450590  
       6Ag     1.682008     1B1g    1.682008     4B1u    1.789550  
       3B3u    2.801107     3B2u    2.801107     5B1u    2.816412  
       1Au     2.841104     6B1u    2.841104     7Ag     3.148621  
       3B3g    4.716074     3B2g    4.716074     7B1u   13.525785  

    Final Occupation by Irrep:
             Ag   B1g   B2g   B3g    Au   B1u   B2u   B3u 
    DOCC [     3,    0,    0,    0,    0,    2,    1,    1 ]

  Energy converged.

  @RHF Final Energy:  -103.04337420425338

   => Energetics <=

    Nuclear Repulsion Energy =             51.8593664418199936
    One-Electron Energy =                -235.5345802006834504
    Two-Electron Energy =                  80.6318395546100390
    DFT Exchange-Correlation Energy =       0.0000000000000000
    Empirical Dispersion Energy =           0.0000000000000000
    PCM Polarization Energy =               0.0000000000000000
    EFP Energy =                            0.0000000000000000
    Total Energy =                       -103.0433742042534249


  Saving occupied orbitals to File 180.

*** tstop() called on wg-dhcp201d206d180.secure.wireless.fsu. at Fri Jun  3 15:52:16 2016
Module time:
	user time   =       1.27 seconds =       0.02 minutes
	system time =       0.01 seconds =       0.00 minutes
	total time  =          1 seconds =       0.02 minutes
Total time:
	user time   =       1.27 seconds =       0.02 minutes
	system time =       0.01 seconds =       0.00 minutes
	total time  =          1 seconds =       0.02 minutes


Properties will be evaluated at   0.000000,   0.000000,   0.000000 Bohr

Properties computed using the SCF density matrix

  Nuclear Dipole Moment: (a.u.)
     X:     0.0000      Y:     0.0000      Z:     0.0000

  Electronic Dipole Moment: (a.u.)
     X:     0.0000      Y:     0.0000      Z:     0.0000

  Dipole Moment: (a.u.)
     X:     0.0000      Y:     0.0000      Z:     0.0000     Total:     0.0000

  Dipole Moment: (Debye)
     X:     0.0000      Y:     0.0000      Z:     0.0000     Total:     0.0000


Reading options from the V2RDM_CASSCF block
Calling plugin v2rdm_casscf.so.



*** tstart() called on wg-dhcp201d206d180.secure.wireless.fsu.
*** at Fri Jun  3 15:52:16 2016



        ****************************************************
        *                                                  *
        *    v2RDM-CASSCF                                  *
        *                                                  *
        *    A variational 2-RDM-driven approach to the    *
        *    active space self-consistent field method     *
        *                                                  *
        ****************************************************


        The following papers should be cited when using v2RDM-CASSCF:

        J. Fosso-Tande, D. R. Nascimento, and A. E. DePrince III,
        Mol. Phys. 114, 423-430 (2015).

            URL: http://dx.doi.org/10.1080/00268976.2015.1078008

        J. Fosso-Tande, T.-S. Nguyen, G. Gidofalvi, and
        A. E. DePrince III, J. Chem. Theory Comput. 12, 2260-2271 (2016).

            URL: http://dx.doi.org/10.1021/acs.jctc.6b00190



  ==> Convergence parameters <==

        r_convergence:                      1.000e-05
        e_convergence:                      1.000e-06
        cg_convergence:                     1.000e-05
        maxiter:                                20000
        cg_maxiter:                             10000

  ==> Active space details <==

        Number of frozen core orbitals:             0
        Number of restricted occupied orbitals:     4
        Number of active occupied orbitals:         3
        Number of active virtual orbitals:          3
        Number of restricted virtual orbitals:     18
        Number of frozen virtual orbitals:          0

        Irrep:             Ag, B1g, B2g, B3g,  Au, B1u, B2u, B3u 
 
        frozen_docc     [   0,   0,   0,   0,   0,   0,   0,   0 ]
        restricted_docc [   2,   0,   0,   0,   0,   2,   0,   0 ]
        active          [   1,   0,   1,   1,   0,   1,   1,   1 ]
        restricted_uocc [   4,   1,   2,   2,   1,   4,   2,   2 ]
        frozen_uocc     [   0,   0,   0,   0,   0,   0,   0,   0 ]

  ==> Orbital optimization parameters <==

        1-step algorithm:                       1
        g_convergence:                  1.000e-04
        e_convergence:                  1.000e-08
        maximum iterations:                    20
        frequency:                            500
        active-active rotations:                0
        exact diagonal Hessian:                 0
        number of DIIS vectors:                 0
        print iteration info:                   0

  ==> Memory requirements <==

        D2:                          0.00 mb
        Q2:                          0.00 mb
        G2:                          0.01 mb

        Total number of variables:           1668
        Total number of constraints:         1555
        Total memory requirements:        1.17 mb

    ==> Transform three-electron integrals <==


        Time for integral transformation:     0.07 s


    reference energy:        -103.043374204253
    frozen core energy:      -138.046901361522
    initial 2-RDM energy:     -72.398719897779

      oiter iiter        E(p)        E(d)      E gap)      mu     eps(p)     eps(d)
          0    37  -95.492194  178.517694  274.009888   1.000   87.46479   66.65538
          1    21  -92.661832 -305.222703  212.560872   1.000   18.41921   39.75872
          2    20 -101.189051 -186.669015   85.479964   1.000    5.88160   13.15653
          3    21 -102.112699 -144.072543   41.959844   1.000    8.78557    4.49340
          4    21 -101.367560 -122.540732   21.173172   1.000    7.52529    2.08476
          5    24 -100.559024 -110.588575   10.029551   1.000    5.46371    1.80206
          6    25  -99.831652 -104.678887    4.847235   1.000    3.65039    1.45704
          7    27  -99.651724 -101.394314    1.742591   1.000    2.56577    1.31336
          8    25  -99.769384  -99.466891    0.302492   1.000    1.82252    1.06349
          9    24 -100.014845  -98.384781    1.630064   1.000    1.14518    1.09026
         10    25 -100.412079  -98.667386    1.744693   1.000    0.74174    0.82306
         11    20 -100.751841  -99.019408    1.732433   1.000    0.46458    0.67639
         12    21 -100.968579  -99.705862    1.262717   1.000    0.37134    0.51879
         13    21 -101.105268 -100.182050    0.923218   1.000    0.26875    0.47856
         14    20 -101.219627 -100.289095    0.930532   1.000    0.21180    0.45428
         15    21 -101.342842 -100.242914    1.099928   1.000    0.20244    0.42162
         16    21 -101.469078 -100.167198    1.301880   1.000    0.16877    0.39864
         17    21 -101.611741 -100.167338    1.444403   1.000    0.16691    0.38227
         18    21 -101.744448 -100.247104    1.497344   1.000    0.17271    0.37082
         19    21 -101.854677 -100.393160    1.461516   1.000    0.18002    0.35729
         20    21 -101.948398 -100.518723    1.429676   1.000    0.18299    0.34652
         21    21 -102.039020 -100.603785    1.435236   1.000    0.17835    0.33538
         22    21 -102.130390 -100.668393    1.461998   1.000    0.17221    0.32350
         23    21 -102.223202 -100.740745    1.482457   1.000    0.16473    0.31277
         24    21 -102.314705 -100.824401    1.490304   1.000    0.15110    0.30543
         25    21 -102.400149 -100.920077    1.480072   1.000    0.13402    0.29919
         26    21 -102.480181 -101.021591    1.458590   1.000    0.12286    0.28766
         27    19 -102.529329 -101.143791    1.385538   1.000    0.14976    0.26953
         28    21 -102.570347 -101.327667    1.242680   1.000    0.18213    0.24508
         29    20 -102.613233 -101.517849    1.095383   1.000    0.20179    0.21535
         30    19 -102.649822 -101.787936    0.861886   1.000    0.20924    0.18500
         31    19 -102.672772 -102.127587    0.545185   1.000    0.18964    0.16881
         32    19 -102.684578 -102.397833    0.286745   1.000    0.15115    0.16278
         33    19 -102.691190 -102.546698    0.144492   1.000    0.11267    0.15923
         34    17 -102.696779 -102.591308    0.105471   1.000    0.08473    0.15476
         35    17 -102.703531 -102.552366    0.151165   1.000    0.07181    0.14986
         36    21 -102.714170 -102.456112    0.258058   1.000    0.07041    0.14533
         37    21 -102.727820 -102.331589    0.396231   1.000    0.07153    0.14139
         38    19 -102.743921 -102.208305    0.535616   1.000    0.06743    0.13698
         39    19 -102.762086 -102.120558    0.641529   1.000    0.05962    0.13313
         40    19 -102.781460 -102.078862    0.702599   1.000    0.05471    0.12642
         41    22 -102.804077 -102.118071    0.686006   1.000    0.07437    0.11914
         42    24 -102.822137 -102.227208    0.594929   1.000    0.07012    0.11658
         43    20 -102.833201 -102.310736    0.522465   1.000    0.04588    0.11791
         44    17 -102.843525 -102.334678    0.508847   1.000    0.02456    0.11810
         45    19 -102.853838 -102.319682    0.534157   1.000    0.02470    0.11670
         46    24 -102.865045 -102.293498    0.571547   1.000    0.02780    0.11527
         47    23 -102.877941 -102.276961    0.600980   1.000    0.02514    0.11452
         48    19 -102.891547 -102.279707    0.611840   1.000    0.02173    0.11417
         49    19 -102.904385 -102.299472    0.604913   1.000    0.02155    0.11390
         50    19 -102.916817 -102.325230    0.591587   1.000    0.02195    0.11372
         51    19 -102.928742 -102.346930    0.581812   1.000    0.02002    0.11370
         52    19 -102.940467 -102.357819    0.582649   1.000    0.01616    0.11376
         53    19 -102.952561 -102.356700    0.595861   1.000    0.01241    0.11379
         54    19 -102.965197 -102.346627    0.618570   1.000    0.01068    0.11375
         55    17 -102.978375 -102.332866    0.645508   1.000    0.01104    0.11364
         56    17 -102.992008 -102.319523    0.672485   1.000    0.01209    0.11350
         57    19 -103.004986 -102.308945    0.696041   1.000    0.01261    0.11248
         58    19 -103.015377 -102.308164    0.707213   1.000    0.03674    0.10679
         59    23 -103.031467 -102.380949    0.650518   1.000    0.06282    0.10061
         60    23 -103.043819 -102.490606    0.553213   1.000    0.06467    0.09812
         61    19 -103.049398 -102.572499    0.476899   1.000    0.05082    0.09802
         62    19 -103.052201 -102.605164    0.447037   1.000    0.03771    0.09308
         63    19 -103.058886 -102.648212    0.410674   1.000    0.09104    0.06188
         64    20 -103.077295 -102.870164    0.207132   1.000    0.10850    0.01980
         65    26 -103.081601 -103.103159    0.021558   1.000    0.09317    0.02611
         66    20 -103.073240 -103.263920    0.190679   1.000    0.06280    0.03353
         67    19 -103.060523 -103.331529    0.271006   1.000    0.03151    0.03063
         68    19 -103.048225 -103.313849    0.265623   1.000    0.02131    0.02465
         69    19 -103.038756 -103.236681    0.197925   1.000    0.03529    0.01806
         70    20 -103.033570 -103.133056    0.099486   1.000    0.04363    0.01099
         71    20 -103.033538 -103.034509    0.000971   1.000    0.04155    0.00675
         72    23 -103.037248 -102.963888    0.073360   1.000    0.03136    0.00900
         73    23 -103.043178 -102.932376    0.110802   1.000    0.01881    0.01106
         74    19 -103.048905 -102.937282    0.111623   1.000    0.01226    0.01066
         75    19 -103.053070 -102.967852    0.085218   1.000    0.01587    0.00814
         76    20 -103.055421 -103.009035    0.046386   1.000    0.01951    0.00469
         77    23 -103.055582 -103.050624    0.004958   1.000    0.01934    0.00239
         78    26 -103.054029 -103.081736    0.027707   1.000    0.01615    0.00362
         79    23 -103.051575 -103.097562    0.045986   1.000    0.01240    0.00487
         80    21 -103.049027 -103.097788    0.048761   1.000    0.01095    0.00492
         81    19 -103.047151 -103.086292    0.039141   1.000    0.01198    0.00398
         82    21 -103.046215 -103.068855    0.022641   1.000    0.01312    0.00271
         83    23 -103.046132 -103.051433    0.005301   1.000    0.01315    0.00204
         84    24 -103.046585 -103.038534    0.008051   1.000    0.01224    0.00211
         85    21 -103.047568 -103.030620    0.016948   1.000    0.01103    0.00251
         86    21 -103.048598 -103.028969    0.019628   1.000    0.01018    0.00259
         87    23 -103.049490 -103.032465    0.017024   1.000    0.00992    0.00234
         88    25 -103.050030 -103.038962    0.011069   1.000    0.00994    0.00195
         89    26 -103.050191 -103.046323    0.003868   1.000    0.00989    0.00169
         90    27 -103.050021 -103.052597    0.002576   1.000    0.00969    0.00166
         91    26 -103.049640 -103.056568    0.006929   1.000    0.00945    0.00173
         92    23 -103.049182 -103.057870    0.008688   1.000    0.00931    0.00175
         93    23 -103.048788 -103.056775    0.007987   1.000    0.00929    0.00167
         94    21 -103.048523 -103.054117    0.005594   1.000    0.00930    0.00155
         95    21 -103.048438 -103.050905    0.002467   1.000    0.00925    0.00145
         96    21 -103.048495 -103.047990    0.000506   1.000    0.00912    0.00141
         97    21 -103.048647 -103.045982    0.002665   1.000    0.00895    0.00140
         98    23 -103.048852 -103.045151    0.003701   1.000    0.00878    0.00139
         99    25 -103.049039 -103.045353    0.003686   1.000    0.00864    0.00135
        100    26 -103.049174 -103.046340    0.002834   1.000    0.00852    0.00130
        101    27 -103.049237 -103.047684    0.001554   1.000    0.00843    0.00125
        102    25 -103.049230 -103.048982    0.000248   1.000    0.00828    0.00142
        103    27 -103.048913 -103.051396    0.002482   1.000    0.00822    0.00132
        104    27 -103.048505 -103.052621    0.004116   1.000    0.00809    0.00130
        105    27 -103.048144 -103.053013    0.004869   1.000    0.00804    0.00128
        106    27 -103.047948 -103.052676    0.004729   1.000    0.00803    0.00116
        107    24 -103.047767 -103.051547    0.003780   1.000    0.00801    0.00107
        108    27 -103.047690 -103.049872    0.002182   1.000    0.00796    0.00102
        109    27 -103.047715 -103.048231    0.000516   1.000    0.00788    0.00099
        110    27 -103.047810 -103.046999    0.000811   1.000    0.00778    0.00097
        111    27 -103.047942 -103.046390    0.001551   1.000    0.00768    0.00096
        112    27 -103.048072 -103.046412    0.001660   1.000    0.00759    0.00094
        113    27 -103.048170 -103.046916    0.001254   1.000    0.00752    0.00091
        114    27 -103.048684 -103.047696    0.000989   1.000    0.00703    0.00092
        115    27 -103.049475 -103.048855    0.000620   1.000    0.00655    0.00091
        116    27 -103.049461 -103.050045    0.000584   1.000    0.00646    0.00088
        117    27 -103.049418 -103.050600    0.001182   1.000    0.00639    0.00088
        118    27 -103.049370 -103.050757    0.001388   1.000    0.00633    0.00088
        119    27 -103.049326 -103.050745    0.001419   1.000    0.00629    0.00090
        120    27 -103.049804 -103.050585    0.000780   1.000    0.00573    0.00084
        121    27 -103.050543 -103.050356    0.000187   1.000    0.00521    0.00090
        122    27 -103.050517 -103.050270    0.000247   1.000    0.00511    0.00087
        123    27 -103.050503 -103.049826    0.000677   1.000    0.00504    0.00079
        124    27 -103.050495 -103.049279    0.001216   1.000    0.00498    0.00071
        125    27 -103.050481 -103.048708    0.001773   1.000    0.00492    0.00067
        126    27 -103.050460 -103.048279    0.002181   1.000    0.00488    0.00078
        127    27 -103.050426 -103.048451    0.001976   1.000    0.00487    0.00065
        128    27 -103.050422 -103.048223    0.002200   1.000    0.00486    0.00063
        129    27 -103.050421 -103.048036    0.002386   1.000    0.00484    0.00061
        130    27 -103.050417 -103.047937    0.002479   1.000    0.00482    0.00059
        131    27 -103.050408 -103.047939    0.002469   1.000    0.00478    0.00058
        132    27 -103.050396 -103.048023    0.002374   1.000    0.00474    0.00057
        133    27 -103.050384 -103.048154    0.002230   1.000    0.00471    0.00056
        134    27 -103.050370 -103.048294    0.002076   1.000    0.00468    0.00055
        135    27 -103.050356 -103.048412    0.001944   1.000    0.00465    0.00054
        136    27 -103.050342 -103.048488    0.001854   1.000    0.00463    0.00054
        137    27 -103.050329 -103.048515    0.001814   1.000    0.00461    0.00053
        138    27 -103.050316 -103.048495    0.001822   1.000    0.00459    0.00052
        139    27 -103.050304 -103.048439    0.001865   1.000    0.00457    0.00052
        140    27 -103.050292 -103.048363    0.001929   1.000    0.00455    0.00051
        141    27 -103.050281 -103.048282    0.001999   1.000    0.00453    0.00050
        142    27 -103.050270 -103.048209    0.002061   1.000    0.00451    0.00050
        143    27 -103.050259 -103.048153    0.002107   1.000    0.00448    0.00049
        144    27 -103.050249 -103.048118    0.002131   1.000    0.00446    0.00048
        145    27 -103.050239 -103.048105    0.002134   1.000    0.00444    0.00048
        146    27 -103.050229 -103.048110    0.002119   1.000    0.00441    0.00049
        147    27 -103.050202 -103.048320    0.001882   1.000    0.00438    0.00052
        148    27 -103.050165 -103.048635    0.001530   1.000    0.00437    0.00047
        149    27 -103.050151 -103.048635    0.001516   1.000    0.00436    0.00046
        150    27 -103.050137 -103.048580    0.001557   1.000    0.00435    0.00045
        151    27 -103.050125 -103.048474    0.001650   1.000    0.00433    0.00045
        152    27 -103.050114 -103.048339    0.001775   1.000    0.00431    0.00044
        153    27 -103.050106 -103.048197    0.001908   1.000    0.00430    0.00044
        154    27 -103.050098 -103.048068    0.002030   1.000    0.00428    0.00043
        155    27 -103.050091 -103.047967    0.002123   1.000    0.00426    0.00043
        156    27 -103.050083 -103.047904    0.002178   1.000    0.00424    0.00042
        157    27 -103.050075 -103.047882    0.002192   1.000    0.00422    0.00042
        158    27 -103.050066 -103.047899    0.002168   1.000    0.00420    0.00041
        159    27 -103.050058 -103.047943    0.002115   1.000    0.00418    0.00041
        160    27 -103.049985 -103.048003    0.001982   1.000    0.00407    0.00042
        161    27 -103.049920 -103.048131    0.001789   1.000    0.00401    0.00042
        162    27 -103.049901 -103.048262    0.001640   1.000    0.00400    0.00040
        163    27 -103.049888 -103.048323    0.001565   1.000    0.00398    0.00040
        164    27 -103.049876 -103.048320    0.001556   1.000    0.00397    0.00039
        165    27 -103.049865 -103.048263    0.001602   1.000    0.00396    0.00043
        166    27 -103.049968 -103.048263    0.001705   1.000    0.00386    0.00048
        167    27 -103.050331 -103.048441    0.001890   1.000    0.00365    0.00045
        168    27 -103.050273 -103.048838    0.001435   1.000    0.00357    0.00049
        169    27 -103.050243 -103.049127    0.001116   1.000    0.00352    0.00042
        170    27 -103.050216 -103.049239    0.000977   1.000    0.00349    0.00040
        171    27 -103.050195 -103.049151    0.001043   1.000    0.00348    0.00038
        172    27 -103.050179 -103.048882    0.001297   1.000    0.00348    0.00036
        173    27 -103.050169 -103.048496    0.001673   1.000    0.00348    0.00035
        174    27 -103.050162 -103.048069    0.002093   1.000    0.00348    0.00034
        175    27 -103.050157 -103.047680    0.002477   1.000    0.00346    0.00042
        176    27 -103.050185 -103.047544    0.002641   1.000    0.00345    0.00038
        177    27 -103.050197 -103.047612    0.002585   1.000    0.00344    0.00035
        178    27 -103.050192 -103.047709    0.002483   1.000    0.00343    0.00033
        179    27 -103.050185 -103.047783    0.002402   1.000    0.00342    0.00032
        180    27 -103.050176 -103.047840    0.002336   1.000    0.00340    0.00032
        181    27 -103.050163 -103.047889    0.002273   1.000    0.00339    0.00032
        182    27 -103.050145 -103.047955    0.002189   1.000    0.00336    0.00040
        183    27 -103.050112 -103.048148    0.001964   1.000    0.00331    0.00034
        184    27 -103.050091 -103.048330    0.001761   1.000    0.00328    0.00035
        185    27 -103.050077 -103.048484    0.001593   1.000    0.00326    0.00036
        186    27 -103.050061 -103.048593    0.001468   1.000    0.00325    0.00031
        187    27 -103.050052 -103.048581    0.001471   1.000    0.00325    0.00030
        188    27 -103.050046 -103.048453    0.001593   1.000    0.00326    0.00030
        189    27 -103.050039 -103.048239    0.001800   1.000    0.00326    0.00029
        190    27 -103.050032 -103.047989    0.002042   1.000    0.00326    0.00029
        191    27 -103.050023 -103.047752    0.002271   1.000    0.00325    0.00028
        192    27 -103.050014 -103.047567    0.002447   1.000    0.00322    0.00030
        193    27 -103.050017 -103.047538    0.002479   1.000    0.00319    0.00036
        194    27 -103.050030 -103.047698    0.002332   1.000    0.00318    0.00030
        195    27 -103.050028 -103.047851    0.002177   1.000    0.00317    0.00031
        196    27 -103.050029 -103.048045    0.001984   1.000    0.00316    0.00032
        197    27 -103.050032 -103.048252    0.001780   1.000    0.00316    0.00028
        198    27 -103.050026 -103.048367    0.001659   1.000    0.00316    0.00027
        199    27 -103.050014 -103.048384    0.001630   1.000    0.00317    0.00027
        200    27 -103.049999 -103.048313    0.001686   1.000    0.00317    0.00026
        201    27 -103.049985 -103.048177    0.001808   1.000    0.00316    0.00026
        202    27 -103.049970 -103.048006    0.001965   1.000    0.00314    0.00035
        203    27 -103.049981 -103.048001    0.001980   1.000    0.00311    0.00037
        204    27 -103.049998 -103.048146    0.001853   1.000    0.00309    0.00033
        205    27 -103.050006 -103.048372    0.001635   1.000    0.00308    0.00043
        206    27 -103.050033 -103.048756    0.001277   1.000    0.00313    0.00036
        207    27 -103.050051 -103.048994    0.001057   1.000    0.00320    0.00032
        208    27 -103.050056 -103.049038    0.001018   1.000    0.00326    0.00028
        209    27 -103.050049 -103.048894    0.001155   1.000    0.00331    0.00026
        210    27 -103.050036 -103.048604    0.001432   1.000    0.00333    0.00024
        211    27 -103.050019 -103.048229    0.001790   1.000    0.00334    0.00023
        212    27 -103.049974 -103.047830    0.002144   1.000    0.00328    0.00026
        213    27 -103.049912 -103.047592    0.002320   1.000    0.00320    0.00039
        214    27 -103.049888 -103.047697    0.002192   1.000    0.00316    0.00038
        215    27 -103.049873 -103.047916    0.001957   1.000    0.00316    0.00030
        216    27 -103.049866 -103.048098    0.001768   1.000    0.00318    0.00023
        217    27 -103.049863 -103.048166    0.001697   1.000    0.00320    0.00022
        218    27 -103.049861 -103.048112    0.001749   1.000    0.00321    0.00022
        219    27 -103.049860 -103.047973    0.001886   1.000    0.00322    0.00022
        220    27 -103.049858 -103.047803    0.002055   1.000    0.00322    0.00021
        221    27 -103.049855 -103.047646    0.002209   1.000    0.00321    0.00021
        222    27 -103.049851 -103.047530    0.002321   1.000    0.00319    0.00020
        223    27 -103.049847 -103.047463    0.002383   1.000    0.00318    0.00020
        224    27 -103.049841 -103.047440    0.002401   1.000    0.00316    0.00020
        225    27 -103.049835 -103.047448    0.002387   1.000    0.00314    0.00020
        226    27 -103.049805 -103.047476    0.002329   1.000    0.00311    0.00026
        227    27 -103.049753 -103.047699    0.002054   1.000    0.00306    0.00036
        228    27 -103.049737 -103.048124    0.001613   1.000    0.00307    0.00034
        229    27 -103.049722 -103.048533    0.001189   1.000    0.00310    0.00027
        230    27 -103.049709 -103.048801    0.000908   1.000    0.00313    0.00023
        231    27 -103.049697 -103.048883    0.000813   1.000    0.00317    0.00023
        232    27 -103.049686 -103.048798    0.000888   1.000    0.00320    0.00023
        233    27 -103.049677 -103.048591    0.001086   1.000    0.00323    0.00022
        234    27 -103.049671 -103.048316    0.001355   1.000    0.00325    0.00020
        235    27 -103.049667 -103.048018    0.001649   1.000    0.00326    0.00019
        236    27 -103.049665 -103.047728    0.001937   1.000    0.00326    0.00018
        237    27 -103.049664 -103.047469    0.002195   1.000    0.00325    0.00018
        238    27 -103.049662 -103.047255    0.002407   1.000    0.00323    0.00018
        239    27 -103.049660 -103.047097    0.002562   1.000    0.00320    0.00018
        240    27 -103.049656 -103.047001    0.002656   1.000    0.00317    0.00019
        241    27 -103.049653 -103.046967    0.002686   1.000    0.00314    0.00019
        242    27 -103.049648 -103.046991    0.002657   1.000    0.00311    0.00019
        243    27 -103.049633 -103.047067    0.002565   1.000    0.00304    0.00019
        244    27 -103.049525 -103.047195    0.002330   1.000    0.00276    0.00027
        245    27 -103.049496 -103.047459    0.002038   1.000    0.00269    0.00021
        246    27 -103.049491 -103.047726    0.001765   1.000    0.00269    0.00019
        247    27 -103.049420 -103.047942    0.001478   1.000    0.00254    0.00026
        248    27 -103.049388 -103.048162    0.001225   1.000    0.00251    0.00020
        249    27 -103.049375 -103.048321    0.001054   1.000    0.00251    0.00019
        250    27 -103.049366 -103.048392    0.000973   1.000    0.00252    0.00019
        251    27 -103.049357 -103.048381    0.000976   1.000    0.00254    0.00018
        252    27 -103.049349 -103.048302    0.001047   1.000    0.00255    0.00018
        253    27 -103.049340 -103.048172    0.001168   1.000    0.00257    0.00017
        254    27 -103.049331 -103.048010    0.001321   1.000    0.00257    0.00017
        255    27 -103.049323 -103.047831    0.001491   1.000    0.00258    0.00016
        256    27 -103.049315 -103.047650    0.001666   1.000    0.00257    0.00015
        257    27 -103.049310 -103.047476    0.001834   1.000    0.00256    0.00015
        258    27 -103.049307 -103.047323    0.001984   1.000    0.00255    0.00016
        259    27 -103.049305 -103.047199    0.002107   1.000    0.00253    0.00016
        260    27 -103.049305 -103.047113    0.002192   1.000    0.00252    0.00016
        261    27 -103.049272 -103.047072    0.002200   1.000    0.00248    0.00020
        262    27 -103.049259 -103.047202    0.002056   1.000    0.00246    0.00026
        263    27 -103.049250 -103.047466    0.001784   1.000    0.00246    0.00025
        264    27 -103.049243 -103.047708    0.001535   1.000    0.00248    0.00020
        265    27 -103.049238 -103.047878    0.001360   1.000    0.00250    0.00016
        266    27 -103.049233 -103.047968    0.001265   1.000    0.00250    0.00016
        267    27 -103.049227 -103.047993    0.001234   1.000    0.00250    0.00016
        268    27 -103.049220 -103.047978    0.001241   1.000    0.00250    0.00017
        269    27 -103.049211 -103.047944    0.001267   1.000    0.00249    0.00016
        270    27 -103.049202 -103.047899    0.001303   1.000    0.00249    0.00015
        271    27 -103.049193 -103.047840    0.001353   1.000    0.00249    0.00015
        272    27 -103.049185 -103.047765    0.001421   1.000    0.00249    0.00014
        273    27 -103.049179 -103.047669    0.001510   1.000    0.00250    0.00014
        274    27 -103.049175 -103.047559    0.001616   1.000    0.00250    0.00014
        275    27 -103.049172 -103.047444    0.001728   1.000    0.00250    0.00014
        276    27 -103.049170 -103.047337    0.001833   1.000    0.00249    0.00014
        277    27 -103.049169 -103.047253    0.001916   1.000    0.00247    0.00014
        278    27 -103.049169 -103.047199    0.001970   1.000    0.00246    0.00014
        279    27 -103.049169 -103.047180    0.001989   1.000    0.00245    0.00014
        280    27 -103.049169 -103.047193    0.001976   1.000    0.00243    0.00014
        281    27 -103.049168 -103.047233    0.001935   1.000    0.00242    0.00014
        282    27 -103.049166 -103.047291    0.001875   1.000    0.00241    0.00014
        283    27 -103.049163 -103.047360    0.001804   1.000    0.00241    0.00014
        284    27 -103.049160 -103.047430    0.001730   1.000    0.00240    0.00013
        285    27 -103.049155 -103.047496    0.001660   1.000    0.00240    0.00013
        286    27 -103.049150 -103.047553    0.001598   1.000    0.00240    0.00013
        287    27 -103.049145 -103.047598    0.001548   1.000    0.00240    0.00013
        288    27 -103.049140 -103.047629    0.001511   1.000    0.00240    0.00013
        289    27 -103.049134 -103.047645    0.001489   1.000    0.00239    0.00013
        290    27 -103.049129 -103.047647    0.001482   1.000    0.00239    0.00013
        291    27 -103.049124 -103.047635    0.001489   1.000    0.00239    0.00013
        292    27 -103.049119 -103.047611    0.001508   1.000    0.00239    0.00013
        293    27 -103.049115 -103.047578    0.001537   1.000    0.00239    0.00013
        294    27 -103.049111 -103.047538    0.001572   1.000    0.00239    0.00013
        295    27 -103.049107 -103.047495    0.001612   1.000    0.00239    0.00013
        296    27 -103.049103 -103.047451    0.001652   1.000    0.00236    0.00023
        297    27 -103.049098 -103.047538    0.001560   1.000    0.00233    0.00019
        298    27 -103.049085 -103.047590    0.001495   1.000    0.00231    0.00017
        299    27 -103.049071 -103.047611    0.001461   1.000    0.00229    0.00014
        300    27 -103.049061 -103.047608    0.001453   1.000    0.00229    0.00013
        301    27 -103.049055 -103.047586    0.001470   1.000    0.00229    0.00013
        302    27 -103.049053 -103.047547    0.001506   1.000    0.00230    0.00013
        303    27 -103.049052 -103.047498    0.001553   1.000    0.00231    0.00013
        304    27 -103.049051 -103.047449    0.001603   1.000    0.00231    0.00012
        305    27 -103.049051 -103.047404    0.001646   1.000    0.00231    0.00012
        306    27 -103.049050 -103.047371    0.001679   1.000    0.00230    0.00012
        307    27 -103.049048 -103.047350    0.001697   1.000    0.00229    0.00012
        308    27 -103.049045 -103.047341    0.001703   1.000    0.00228    0.00012
        309    27 -103.049041 -103.047340    0.001701   1.000    0.00228    0.00012
        310    27 -103.049038 -103.047344    0.001694   1.000    0.00227    0.00012
        311    27 -103.049034 -103.047350    0.001685   1.000    0.00226    0.00012
        312    27 -103.049031 -103.047356    0.001675   1.000    0.00226    0.00012
        313    27 -103.049028 -103.047363    0.001665   1.000    0.00226    0.00012
        314    27 -103.049025 -103.047370    0.001654   1.000    0.00224    0.00015
        315    27 -103.049027 -103.047441    0.001586   1.000    0.00223    0.00015
        316    27 -103.049027 -103.047527    0.001500   1.000    0.00222    0.00013
        317    27 -103.049021 -103.047576    0.001445   1.000    0.00221    0.00012
        318    27 -103.049014 -103.047603    0.001410   1.000    0.00221    0.00012
        319    27 -103.049008 -103.047615    0.001392   1.000    0.00221    0.00012
        320    27 -103.049002 -103.047613    0.001390   1.000    0.00222    0.00012
        321    27 -103.048998 -103.047594    0.001404   1.000    0.00222    0.00011
        322    27 -103.048994 -103.047559    0.001434   1.000    0.00222    0.00011
        323    27 -103.048989 -103.047511    0.001478   1.000    0.00222    0.00015
        324    27 -103.048992 -103.047505    0.001487   1.000    0.00223    0.00012
        325    27 -103.048986 -103.047468    0.001518   1.000    0.00223    0.00011
        326    27 -103.048980 -103.047409    0.001571   1.000    0.00222    0.00011
        327    27 -103.048975 -103.047347    0.001628   1.000    0.00222    0.00011
        328    27 -103.048972 -103.047293    0.001679   1.000    0.00221    0.00011
        329    27 -103.048970 -103.047252    0.001717   1.000    0.00220    0.00011
        330    27 -103.048969 -103.047227    0.001742   1.000    0.00219    0.00014
        331    27 -103.048978 -103.047270    0.001708   1.000    0.00217    0.00015
        332    27 -103.048989 -103.047351    0.001638   1.000    0.00217    0.00012
        333    27 -103.048989 -103.047403    0.001586   1.000    0.00218    0.00011
        334    27 -103.048984 -103.047439    0.001545   1.000    0.00217    0.00013
        335    27 -103.048976 -103.047500    0.001476   1.000    0.00215    0.00022
        336    27 -103.048961 -103.047630    0.001331   1.000    0.00213    0.00017
        337    27 -103.048946 -103.047759    0.001187   1.000    0.00212    0.00019
        338    27 -103.048925 -103.047918    0.001008   1.000    0.00212    0.00014
        339    29 -103.048910 -103.048013    0.000897   1.000    0.00213    0.00014
        340    29 -103.048897 -103.048030    0.000867   1.000    0.00215    0.00014
        341    29 -103.048888 -103.047968    0.000920   1.000    0.00217    0.00013
        342    29 -103.048882 -103.047844    0.001038   1.000    0.00218    0.00012
        343    27 -103.048877 -103.047692    0.001185   1.000    0.00218    0.00025
        344    27 -103.048870 -103.047609    0.001261   1.000    0.00217    0.00014
        345    27 -103.048863 -103.047548    0.001315   1.000    0.00216    0.00015
        346    27 -103.048854 -103.047513    0.001341   1.000    0.00215    0.00014
        347    27 -103.048845 -103.047482    0.001363   1.000    0.00214    0.00013
        348    27 -103.048838 -103.047437    0.001401   1.000    0.00214    0.00011
        349    27 -103.048833 -103.047375    0.001458   1.000    0.00213    0.00010
        350    27 -103.048830 -103.047299    0.001531   1.000    0.00213    0.00009
        351    27 -103.048829 -103.047219    0.001610   1.000    0.00212    0.00010
        352    27 -103.048830 -103.047145    0.001685   1.000    0.00212    0.00011
        353    27 -103.048832 -103.047086    0.001746   1.000    0.00211    0.00011
        354    27 -103.048835 -103.047047    0.001788   1.000    0.00211    0.00011
        355    27 -103.048837 -103.047030    0.001808   1.000    0.00210    0.00010
        356    27 -103.048839 -103.047034    0.001805   1.000    0.00210    0.00010
        357    27 -103.048840 -103.047058    0.001782   1.000    0.00209    0.00010
        358    27 -103.048840 -103.047100    0.001740   1.000    0.00208    0.00010
        359    27 -103.048838 -103.047154    0.001684   1.000    0.00207    0.00010
        360    27 -103.048835 -103.047217    0.001618   1.000    0.00206    0.00009
        361    27 -103.048831 -103.047282    0.001549   1.000    0.00205    0.00009
        362    27 -103.048826 -103.047346    0.001481   1.000    0.00205    0.00009
        363    27 -103.048822 -103.047401    0.001421   1.000    0.00205    0.00009
        364    27 -103.048817 -103.047445    0.001372   1.000    0.00205    0.00009
        365    27 -103.048812 -103.047475    0.001337   1.000    0.00205    0.00009
        366    27 -103.048808 -103.047490    0.001318   1.000    0.00205    0.00009
        367    27 -103.048804 -103.047489    0.001315   1.000    0.00206    0.00009
        368    27 -103.048800 -103.047474    0.001326   1.000    0.00206    0.00009
        369    27 -103.048796 -103.047447    0.001349   1.000    0.00206    0.00009
        370    27 -103.048792 -103.047411    0.001382   1.000    0.00206    0.00009
        371    27 -103.048789 -103.047369    0.001420   1.000    0.00206    0.00009
        372    27 -103.048786 -103.047324    0.001461   1.000    0.00206    0.00009
        373    27 -103.048783 -103.047281    0.001502   1.000    0.00205    0.00009
        374    27 -103.048781 -103.047240    0.001541   1.000    0.00205    0.00009
        375    27 -103.048778 -103.047205    0.001573   1.000    0.00205    0.00009
        376    27 -103.048777 -103.047177    0.001599   1.000    0.00204    0.00009
        377    27 -103.048775 -103.047158    0.001617   1.000    0.00203    0.00009
        378    27 -103.048774 -103.047148    0.001627   1.000    0.00203    0.00009
        379    27 -103.048773 -103.047146    0.001627   1.000    0.00202    0.00009
        380    27 -103.048772 -103.047153    0.001619   1.000    0.00202    0.00009
        381    27 -103.048771 -103.047166    0.001605   1.000    0.00201    0.00009
        382    27 -103.048769 -103.047185    0.001584   1.000    0.00201    0.00009
        383    27 -103.048768 -103.047208    0.001560   1.000    0.00200    0.00008
        384    27 -103.048766 -103.047232    0.001533   1.000    0.00200    0.00008
        385    27 -103.048763 -103.047257    0.001507   1.000    0.00200    0.00008
        386    27 -103.048760 -103.047279    0.001481   1.000    0.00200    0.00008
        387    27 -103.048757 -103.047299    0.001458   1.000    0.00199    0.00008
        388    27 -103.048754 -103.047314    0.001440   1.000    0.00199    0.00008
        389    27 -103.048751 -103.047324    0.001427   1.000    0.00199    0.00008
        390    27 -103.048747 -103.047328    0.001419   1.000    0.00199    0.00008
        391    27 -103.048729 -103.047327    0.001403   1.000    0.00195    0.00010
        392    27 -103.048673 -103.047352    0.001321   1.000    0.00184    0.00017
        393    27 -103.048654 -103.047456    0.001198   1.000    0.00181    0.00012
        394    27 -103.048649 -103.047515    0.001134   1.000    0.00181    0.00009
        395    27 -103.048643 -103.047537    0.001107   1.000    0.00182    0.00009
        396    27 -103.048638 -103.047534    0.001104   1.000    0.00183    0.00009
        397    27 -103.048597 -103.047512    0.001085   1.000    0.00176    0.00012
        398    27 -103.048568 -103.047509    0.001058   1.000    0.00174    0.00010
        399    27 -103.048557 -103.047505    0.001052   1.000    0.00173    0.00009
        400    27 -103.048550 -103.047479    0.001071   1.000    0.00173    0.00008
        401    27 -103.048546 -103.047434    0.001112   1.000    0.00173    0.00008
        402    27 -103.048543 -103.047374    0.001169   1.000    0.00174    0.00008
        403    27 -103.048540 -103.047305    0.001235   1.000    0.00174    0.00008
        404    27 -103.048537 -103.047235    0.001303   1.000    0.00173    0.00008
        405    27 -103.048536 -103.047170    0.001366   1.000    0.00173    0.00008
        406    27 -103.048535 -103.047116    0.001419   1.000    0.00172    0.00008
        407    27 -103.048535 -103.047073    0.001462   1.000    0.00172    0.00008
        408    27 -103.048536 -103.047044    0.001492   1.000    0.00171    0.00017
        409    27 -103.048537 -103.047107    0.001430   1.000    0.00170    0.00010
        410    27 -103.048534 -103.047167    0.001367   1.000    0.00170    0.00009
        411    27 -103.048528 -103.047214    0.001315   1.000    0.00169    0.00008
        412    29 -103.048523 -103.047247    0.001276   1.000    0.00169    0.00008
        413    29 -103.048519 -103.047269    0.001250   1.000    0.00169    0.00007
        414    29 -103.048516 -103.047281    0.001235   1.000    0.00168    0.00009
        415    29 -103.048515 -103.047315    0.001200   1.000    0.00168    0.00017
        416    27 -103.048512 -103.047422    0.001090   1.000    0.00167    0.00010
        417    29 -103.048504 -103.047511    0.000993   1.000    0.00166    0.00012
        418    27 -103.048491 -103.047612    0.000879   1.000    0.00165    0.00023
        419    27 -103.048478 -103.047782    0.000696   1.000    0.00166    0.00017
        420    27 -103.048459 -103.047920    0.000539   1.000    0.00166    0.00016
        421    27 -103.048437 -103.048010    0.000428   1.000    0.00167    0.00015
        422    27 -103.048417 -103.048037    0.000380   1.000    0.00168    0.00013
        423    27 -103.048399 -103.048000    0.000399   1.000    0.00170    0.00012
        424    27 -103.048386 -103.047906    0.000480   1.000    0.00171    0.00011
        425    27 -103.048377 -103.047766    0.000611   1.000    0.00172    0.00010
        426    27 -103.048372 -103.047596    0.000776   1.000    0.00172    0.00009
        427    27 -103.048370 -103.047412    0.000958   1.000    0.00172    0.00009
        428    27 -103.048370 -103.047229    0.001141   1.000    0.00172    0.00008
        429    27 -103.048372 -103.047060    0.001312   1.000    0.00171    0.00007
        430    27 -103.048376 -103.046913    0.001463   1.000    0.00170    0.00008
        431    27 -103.048381 -103.046794    0.001587   1.000    0.00169    0.00008
        432    27 -103.048386 -103.046707    0.001680   1.000    0.00168    0.00009
        433    27 -103.048392 -103.046653    0.001739   1.000    0.00167    0.00009
        434    27 -103.048398 -103.046633    0.001765   1.000    0.00166    0.00010
        435    27 -103.048404 -103.046645    0.001759   1.000    0.00165    0.00010
        436    27 -103.048409 -103.046686    0.001723   1.000    0.00164    0.00009
        437    27 -103.048413 -103.046754    0.001659   1.000    0.00163    0.00009
        438    27 -103.048416 -103.046843    0.001574   1.000    0.00163    0.00008
        439    27 -103.048418 -103.046946    0.001472   1.000    0.00162    0.00007
        440    27 -103.048418 -103.047058    0.001360   1.000    0.00162    0.00007
        441    27 -103.048417 -103.047170    0.001246   1.000    0.00161    0.00007
        442    27 -103.048413 -103.047277    0.001136   1.000    0.00161    0.00007
        443    27 -103.048408 -103.047372    0.001037   1.000    0.00161    0.00007
        444    27 -103.048402 -103.047449    0.000953   1.000    0.00161    0.00007
        445    27 -103.048395 -103.047506    0.000889   1.000    0.00161    0.00008
        446    27 -103.048387 -103.047540    0.000847   1.000    0.00162    0.00008
        447    27 -103.048378 -103.047550    0.000828   1.000    0.00162    0.00008
        448    27 -103.048370 -103.047538    0.000832   1.000    0.00162    0.00008
        449    27 -103.048362 -103.047506    0.000856   1.000    0.00163    0.00008
        450    27 -103.048355 -103.047457    0.000898   1.000    0.00163    0.00007
        451    27 -103.048349 -103.047394    0.000955   1.000    0.00163    0.00007
        452    27 -103.048344 -103.047323    0.001021   1.000    0.00163    0.00007
        453    27 -103.048340 -103.047247    0.001093   1.000    0.00163    0.00006
        454    27 -103.048338 -103.047171    0.001167   1.000    0.00163    0.00006
        455    27 -103.048337 -103.047099    0.001237   1.000    0.00163    0.00006
        456    27 -103.048337 -103.047036    0.001301   1.000    0.00162    0.00006
        457    27 -103.048338 -103.046982    0.001355   1.000    0.00161    0.00007
        458    27 -103.048344 -103.046958    0.001386   1.000    0.00160    0.00012
        459    27 -103.048366 -103.047000    0.001365   1.000    0.00161    0.00009
        460    27 -103.048374 -103.047022    0.001353   1.000    0.00161    0.00007
        461    27 -103.048375 -103.047030    0.001345   1.000    0.00161    0.00007
        462    27 -103.048373 -103.047039    0.001334   1.000    0.00161    0.00007
        463    27 -103.048370 -103.047057    0.001313   1.000    0.00160    0.00006
        464    27 -103.048368 -103.047088    0.001280   1.000    0.00160    0.00006
        465    27 -103.048366 -103.047128    0.001238   1.000    0.00159    0.00006
        466    27 -103.048364 -103.047170    0.001194   1.000    0.00159    0.00006
        467    27 -103.048361 -103.047207    0.001154   1.000    0.00159    0.00006
        468    27 -103.048357 -103.047234    0.001123   1.000    0.00159    0.00006
        469    27 -103.048353 -103.047251    0.001102   1.000    0.00159    0.00006
        470    27 -103.048350 -103.047259    0.001090   1.000    0.00159    0.00006
        471    27 -103.048346 -103.047260    0.001086   1.000    0.00159    0.00006
        472    27 -103.048343 -103.047256    0.001087   1.000    0.00159    0.00011
        473    27 -103.048346 -103.047295    0.001052   1.000    0.00159    0.00007
        474    27 -103.048345 -103.047297    0.001048   1.000    0.00160    0.00006
        475    27 -103.048341 -103.047287    0.001054   1.000    0.00160    0.00006
        476    27 -103.048338 -103.047273    0.001065   1.000    0.00160    0.00006
        477    27 -103.048334 -103.047253    0.001082   1.000    0.00160    0.00006
        478    27 -103.048331 -103.047226    0.001105   1.000    0.00160    0.00006
        479    27 -103.048328 -103.047195    0.001133   1.000    0.00160    0.00006
        480    27 -103.048287 -103.047162    0.001126   1.000    0.00152    0.00010
        481    27 -103.048229 -103.047189    0.001039   1.000    0.00145    0.00015
        482    27 -103.048227 -103.047278    0.000949   1.000    0.00144    0.00009
        483    27 -103.048222 -103.047306    0.000916   1.000    0.00144    0.00007
        484    27 -103.048217 -103.047305    0.000912   1.000    0.00145    0.00006
        485    27 -103.048214 -103.047297    0.000917   1.000    0.00145    0.00006
        486    27 -103.048211 -103.047287    0.000924   1.000    0.00145    0.00006
        487    27 -103.048207 -103.047275    0.000931   1.000    0.00145    0.00006
        488    27 -103.048202 -103.047258    0.000944   1.000    0.00145    0.00006
        489    27 -103.048198 -103.047234    0.000963   1.000    0.00145    0.00006
        490    27 -103.048194 -103.047203    0.000991   1.000    0.00145    0.00006
        491    27 -103.048191 -103.047167    0.001024   1.000    0.00145    0.00006
        492    29 -103.048190 -103.047127    0.001062   1.000    0.00145    0.00006
        493    29 -103.048189 -103.047089    0.001100   1.000    0.00144    0.00006
        494    29 -103.048189 -103.047053    0.001135   1.000    0.00144    0.00006
        495    27 -103.048189 -103.047024    0.001165   1.000    0.00144    0.00006
        496    27 -103.048190 -103.047002    0.001188   1.000    0.00144    0.00006
        497    27 -103.048191 -103.046988    0.001204   1.000    0.00143    0.00006
        498    27 -103.048192 -103.046981    0.001212   1.000    0.00143    0.00006
        499    27 -103.048194 -103.046981    0.001213   1.000    0.00143    0.00006

        ==> Orbital Optimization <==

            Orbital Optimization did not converge in  20 iterations 
            Total energy change: -2.437111e-02
            Final gradient norm: 1.472340e-03

        500    27 -103.072566 -101.779841    1.292724  24.817    0.00142    0.00006
        501    38 -103.076661 -100.377455    2.699206  24.817    0.01489    0.37455
        502    27 -103.084362 -101.293936    1.790425  24.817    0.01915    0.25510
        503    27 -103.087252 -102.429093    0.658159  24.817    0.02036    0.19566
        504    27 -103.087449 -103.463794    0.376345  24.817    0.01776    0.18702
        505    27 -103.085762 -104.202403    1.116641  24.817    0.01233    0.20174
        506    27 -103.083467 -104.485603    1.402136  24.817    0.00702    0.20468
        507    27 -103.081418 -104.357546    1.276128  24.817    0.00649    0.18917
        508    30 -103.080194 -103.953044    0.872850  24.817    0.00902    0.16387
        509    27 -103.080107 -103.445701    0.365594  24.817    0.01043    0.14781
        510    27 -103.079453 -103.076450    0.003003  24.817    0.00996    0.13805
        511    27 -103.084702 -102.855898    0.228804  24.817    0.00606    0.13482
        512    27 -103.087437 -102.826544    0.260892  24.817    0.00530    0.12808
        513    27 -103.087848 -102.890835    0.197013  24.817    0.00487    0.12144
        514    29 -103.088454 -103.009732    0.078722  24.817    0.00507    0.11397
        515    29 -103.089561 -103.126276    0.036715  24.817    0.00490    0.10827
        516    29 -103.089911 -103.230268    0.140357  24.817    0.00495    0.10359
        517    29 -103.090041 -103.312503    0.222462  24.817    0.00497    0.09859
        518    29 -103.090294 -103.352022    0.261728  24.817    0.00491    0.09717
        519    29 -103.090535 -103.383635    0.293100  24.817    0.00491    0.09287
        520    29 -103.090485 -103.388958    0.298473  24.817    0.00467    0.09085
        521    29 -103.090092 -103.406872    0.316780  24.817    0.00414    0.09306
        522    29 -103.089597 -103.472008    0.382410  24.817    0.00371    0.09316
        523    29 -103.089084 -103.542416    0.453332  24.817    0.00333    0.09295
        524    27 -103.088553 -103.592307    0.503755  24.817    0.00285    0.09465
        525    29 -103.088014 -103.628212    0.540198  24.817    0.00260    0.09357
        526    29 -103.087411 -103.629546    0.542135  24.817    0.00261    0.09184
        527    27 -103.086788 -103.607422    0.520634  24.817    0.00282    0.08934
        528    27 -103.086202 -103.569631    0.483429  24.817    0.00310    0.08602
        529    27 -103.085702 -103.520466    0.434764  24.817    0.00338    0.08214
        530    25 -103.085257 -103.465124    0.379867  24.817    0.00354    0.07787
        531    26 -103.084684 -103.407790    0.323106  24.817    0.00339    0.07385
        532    27 -103.084365 -103.353848    0.269483  24.817    0.00334    0.07012
        533    27 -103.084147 -103.303749    0.219602  24.817    0.00327    0.06661
        534    27 -103.084060 -103.253947    0.169887  24.817    0.00322    0.06355
        535    27 -103.084121 -103.202161    0.118040  24.817    0.00316    0.06143
        536    27 -103.084312 -103.150605    0.066293  24.817    0.00308    0.06019
        537    27 -103.084605 -103.101524    0.016919  24.817    0.00295    0.05962
        538    27 -103.084966 -103.060623    0.024343  24.817    0.00276    0.05989
        539    27 -103.085365 -103.033486    0.051880  24.817    0.00255    0.05914
        540    27 -103.085811 -103.010274    0.075537  24.817    0.00235    0.05866
        541    27 -103.086287 -102.993723    0.092563  24.817    0.00217    0.05813
        542    27 -103.086783 -102.984003    0.102780  24.817    0.00202    0.05748
        543    27 -103.087161 -102.980995    0.106166  24.817    0.00176    0.05672
        544    27 -103.087542 -102.985806    0.101735  24.817    0.00163    0.05562
        545    27 -103.087990 -102.996971    0.091020  24.817    0.00161    0.05420
        546    27 -103.088356 -103.013635    0.074721  24.817    0.00157    0.05257
        547    27 -103.088571 -103.034218    0.054353  24.817    0.00158    0.05088
        548    27 -103.088755 -103.058398    0.030357  24.817    0.00159    0.04911
        549    27 -103.088890 -103.081948    0.006942  24.817    0.00165    0.04746
        550    27 -103.089042 -103.105691    0.016650  24.817    0.00169    0.04601
        551    26 -103.089149 -103.128857    0.039708  24.817    0.00171    0.04490
        552    27 -103.089192 -103.152054    0.062862  24.817    0.00171    0.04415
        553    27 -103.089187 -103.176122    0.086936  24.817    0.00169    0.04370
        554    27 -103.089123 -103.198764    0.109642  24.817    0.00166    0.04349
        555    27 -103.089006 -103.219283    0.130277  24.817    0.00162    0.04344
        556    27 -103.088848 -103.236612    0.147764  24.817    0.00157    0.04356
        557    27 -103.088652 -103.252596    0.163944  24.817    0.00154    0.04356
        558    27 -103.088433 -103.264197    0.175764  24.817    0.00152    0.04356
        559    29 -103.088199 -103.272314    0.184115  24.817    0.00151    0.04335
        560    27 -103.087954 -103.275958    0.188003  24.817    0.00152    0.04297
        561    29 -103.087705 -103.276085    0.188381  24.817    0.00152    0.04265
        562    29 -103.087438 -103.273974    0.186535  24.817    0.00153    0.04194
        563    27 -103.087174 -103.267178    0.180004  24.817    0.00155    0.04120
        564    27 -103.086865 -103.258190    0.171325  24.817    0.00152    0.04044
        565    27 -103.086618 -103.250546    0.163928  24.817    0.00153    0.03940
        566    24 -103.086417 -103.236349    0.149932  24.817    0.00159    0.03803
        567    27 -103.086255 -103.217461    0.131207  24.817    0.00165    0.03644
        568    27 -103.086144 -103.194480    0.108337  24.817    0.00170    0.03499
        569    27 -103.086068 -103.168942    0.082874  24.817    0.00170    0.03385
        570    27 -103.085863 -103.143201    0.057338  24.817    0.00155    0.03328
        571    27 -103.085913 -103.121605    0.035693  24.817    0.00154    0.03240
        572    27 -103.086014 -103.100135    0.014121  24.817    0.00152    0.03180
        573    27 -103.086160 -103.081612    0.004547  24.817    0.00150    0.03139
        574    27 -103.086340 -103.066332    0.020008  24.817    0.00148    0.03111
        575    27 -103.086547 -103.054538    0.032009  24.817    0.00146    0.03093
        576    27 -103.086764 -103.046319    0.040445  24.817    0.00144    0.03056
        577    27 -103.086832 -103.039164    0.047668  24.817    0.00141    0.03054
        578    27 -103.087091 -103.037883    0.049208  24.817    0.00143    0.02989
        579    27 -103.087342 -103.036736    0.050606  24.817    0.00144    0.02932
        580    29 -103.087571 -103.038359    0.049212  24.817    0.00146    0.02859
        581    29 -103.087785 -103.041771    0.046014  24.817    0.00147    0.02797
        582    27 -103.087986 -103.048812    0.039174  24.817    0.00148    0.02743
        583    29 -103.088169 -103.059175    0.028994  24.817    0.00149    0.02667
        584    29 -103.088306 -103.071682    0.016625  24.817    0.00152    0.02577
        585    29 -103.088401 -103.084474    0.003927  24.817    0.00155    0.02466
        586    29 -103.088469 -103.094883    0.006414  24.817    0.00157    0.02376
        587    29 -103.088510 -103.105008    0.016498  24.817    0.00158    0.02301
        588    29 -103.088518 -103.115316    0.026798  24.817    0.00157    0.02247
        589    29 -103.088497 -103.125940    0.037443  24.817    0.00156    0.02211
        590    29 -103.088443 -103.136888    0.048444  24.817    0.00154    0.02186
        591    29 -103.088361 -103.147949    0.059588  24.817    0.00152    0.02170
        592    29 -103.088248 -103.159018    0.070770  24.817    0.00151    0.02169
        593    29 -103.088102 -103.170486    0.082384  24.817    0.00149    0.02144
        594    29 -103.087942 -103.178568    0.090626  24.817    0.00148    0.02129
        595    29 -103.087778 -103.183354    0.095576  24.817    0.00148    0.02110
        596    29 -103.087614 -103.185007    0.097393  24.817    0.00147    0.02113
        597    29 -103.087444 -103.185585    0.098141  24.817    0.00147    0.02062
        598    29 -103.087279 -103.183880    0.096601  24.817    0.00146    0.02054
        599    29 -103.087113 -103.182100    0.094986  24.817    0.00148    0.01978
        600    29 -103.086964 -103.175893    0.088930  24.817    0.00151    0.01917
        601    29 -103.086833 -103.167432    0.080599  24.817    0.00153    0.01848
        602    29 -103.086723 -103.157386    0.070663  24.817    0.00154    0.01774
        603    29 -103.086635 -103.146432    0.059797  24.817    0.00155    0.01698
        604    29 -103.086568 -103.135133    0.048565  24.817    0.00155    0.01626
        605    27 -103.086524 -103.123876    0.037352  24.817    0.00154    0.01559
        606    27 -103.086502 -103.113010    0.026507  24.817    0.00153    0.01502
        607    27 -103.086504 -103.102636    0.016132  24.817    0.00152    0.01455
        608    27 -103.086527 -103.092895    0.006368  24.817    0.00151    0.01419
        609    29 -103.086571 -103.083906    0.002665  24.817    0.00150    0.01393
        610    29 -103.086635 -103.075830    0.010805  24.817    0.00149    0.01378
        611    29 -103.086716 -103.068905    0.017811  24.817    0.00146    0.01409
        612    29 -103.086812 -103.064441    0.022371  24.817    0.00145    0.01403
        613    29 -103.086922 -103.061352    0.025570  24.817    0.00143    0.01392
        614    29 -103.087041 -103.058638    0.028403  24.817    0.00142    0.01383
        615    29 -103.087164 -103.056857    0.030307  24.817    0.00142    0.01358
        616    29 -103.087284 -103.056098    0.031187  24.817    0.00143    0.01318
        617    29 -103.087396 -103.056567    0.030829  24.817    0.00143    0.01284
        618    29 -103.087497 -103.059015    0.028482  24.817    0.00144    0.01223
        619    29 -103.087584 -103.061467    0.026116  24.817    0.00146    0.01171
        620    29 -103.087657 -103.064562    0.023095  24.817    0.00146    0.01119
        621    29 -103.087716 -103.068364    0.019352  24.817    0.00147    0.01071
        622    29 -103.087763 -103.072893    0.014869  24.817    0.00147    0.01026
        623    29 -103.087796 -103.078087    0.009709  24.817    0.00148    0.00985
        624    29 -103.087817 -103.083787    0.004030  24.817    0.00147    0.00972
        625    29 -103.087817 -103.091100    0.003282  24.817    0.00146    0.00968
        626    29 -103.087793 -103.099496    0.011703  24.817    0.00145    0.00929
        627    29 -103.087752 -103.106159    0.018406  24.817    0.00145    0.00919
        628    29 -103.087699 -103.111208    0.023509  24.817    0.00145    0.00911
        629    29 -103.087640 -103.114617    0.026977  24.817    0.00145    0.00903
        630    29 -103.087579 -103.116611    0.029032  24.817    0.00145    0.00894
        631    29 -103.087520 -103.117518    0.029999  24.817    0.00145    0.00883
        632    29 -103.087462 -103.117643    0.030181  24.817    0.00145    0.00872
        633    29 -103.087407 -103.117205    0.029799  24.817    0.00145    0.00861
        634    27 -103.087353 -103.116320    0.028967  24.817    0.00145    0.00848
        635    27 -103.087300 -103.115093    0.027792  24.817    0.00145    0.00834
        636    27 -103.087250 -103.113515    0.026265  24.817    0.00144    0.00840
        637    29 -103.087196 -103.112636    0.025440  24.817    0.00144    0.00827
        638    29 -103.087138 -103.111806    0.024668  24.817    0.00143    0.00823
        639    29 -103.087044 -103.111618    0.024574  24.817    0.00141    0.00822
        640    29 -103.086929 -103.111168    0.024238  24.817    0.00136    0.00904
        641    29 -103.086838 -103.112132    0.025294  24.817    0.00134    0.00940
        642    29 -103.086743 -103.112993    0.026250  24.817    0.00134    0.00890
        643    27 -103.086650 -103.111084    0.024434  24.817    0.00134    0.00875
        644    27 -103.086565 -103.108002    0.021437  24.817    0.00134    0.00858
        645    27 -103.086489 -103.103938    0.017449  24.817    0.00134    0.00845
        646    27 -103.086426 -103.099268    0.012843  24.817    0.00132    0.00827
        647    27 -103.086375 -103.094399    0.008024  24.817    0.00130    0.00825
        648    27 -103.086337 -103.090848    0.004511  24.817    0.00127    0.00828
        649    27 -103.086311 -103.088501    0.002190  24.817    0.00125    0.00859
        650    27 -103.086294 -103.087138    0.000844  24.817    0.00125    0.00770
        651    26 -103.086281 -103.085436    0.000845  24.817    0.00124    0.00724
        652    26 -103.086272 -103.083827    0.002444  24.817    0.00123    0.00689
        653    27 -103.086266 -103.082400    0.003867  24.817    0.00121    0.00671
        654    27 -103.086264 -103.081287    0.004977  24.817    0.00119    0.00660
        655    27 -103.086263 -103.080519    0.005744  24.817    0.00117    0.00648
        656    27 -103.086265 -103.080108    0.006157  24.817    0.00115    0.00634
        657    27 -103.086269 -103.079962    0.006307  24.817    0.00113    0.00620
        658    27 -103.086274 -103.079934    0.006340  24.817    0.00111    0.00644
        659    29 -103.086272 -103.081056    0.005215  24.817    0.00108    0.00753
        660    27 -103.086231 -103.083832    0.002399  24.817    0.00102    0.00788
        661    27 -103.086173 -103.087751    0.001578  24.817    0.00097    0.00860
        662    27 -103.086110 -103.091751    0.005641  24.817    0.00093    0.00922
        663    27 -103.086041 -103.094717    0.008676  24.817    0.00090    0.00954
        664    27 -103.085971 -103.097058    0.011087  24.817    0.00089    0.00953
        665    27 -103.085903 -103.098882    0.012979  24.817    0.00088    0.00930
        666    26 -103.085839 -103.100377    0.014539  24.817    0.00088    0.00895
        667    26 -103.085779 -103.101662    0.015883  24.817    0.00087    0.00855
        668    26 -103.085723 -103.103086    0.017363  24.817    0.00087    0.00817
        669    27 -103.085670 -103.104675    0.019005  24.817    0.00086    0.00785
        670    27 -103.085620 -103.105888    0.020268  24.817    0.00086    0.00763
        671    27 -103.085573 -103.106461    0.020888  24.817    0.00085    0.00748
        672    27 -103.085531 -103.106293    0.020762  24.817    0.00084    0.00738
        673    27 -103.085493 -103.105398    0.019905  24.817    0.00084    0.00730
        674    27 -103.085461 -103.103883    0.018422  24.817    0.00084    0.00723
        675    27 -103.085433 -103.101899    0.016466  24.817    0.00083    0.00730
        676    27 -103.085418 -103.100538    0.015120  24.817    0.00079    0.00851
        677    27 -103.085443 -103.102394    0.016951  24.817    0.00075    0.00872
        678    27 -103.085466 -103.102477    0.017011  24.817    0.00073    0.00927
        679    27 -103.085482 -103.102391    0.016909  24.817    0.00072    0.00950
        680    27 -103.085491 -103.103297    0.017806  24.817    0.00072    0.00945
        681    27 -103.085475 -103.104944    0.019468  24.817    0.00070    0.00923
        682    27 -103.085420 -103.107276    0.021856  24.817    0.00068    0.00885
        683    27 -103.085354 -103.111486    0.026132  24.817    0.00067    0.00848
        684    27 -103.085276 -103.114527    0.029251  24.817    0.00066    0.00831
        685    27 -103.085190 -103.116127    0.030937  24.817    0.00065    0.00819
        686    27 -103.085103 -103.116331    0.031227  24.817    0.00065    0.00806
        687    27 -103.085018 -103.115339    0.030321  24.817    0.00064    0.00786
        688    27 -103.084936 -103.113459    0.028523  24.817    0.00063    0.00757
        689    27 -103.084860 -103.111053    0.026192  24.817    0.00062    0.00722
        690    27 -103.084775 -103.108401    0.023626  24.817    0.00058    0.00685
        691    27 -103.084689 -103.106001    0.021312  24.817    0.00055    0.00653
        692    27 -103.084633 -103.104457    0.019824  24.817    0.00051    0.00686
        693    29 -103.084600 -103.103966    0.019367  24.817    0.00045    0.00778
        694    27 -103.084575 -103.104342    0.019767  24.817    0.00040    0.00803
        695    27 -103.084541 -103.105164    0.020623  24.817    0.00036    0.00822
        696    27 -103.084502 -103.105304    0.020801  24.817    0.00035    0.00812
        697    27 -103.084444 -103.105229    0.020785  24.817    0.00030    0.00774
        698    27 -103.084388 -103.104948    0.020560  24.817    0.00029    0.00719
        699    27 -103.084356 -103.104031    0.019675  24.817    0.00029    0.00664
        700    29 -103.084326 -103.102080    0.017753  24.817    0.00029    0.00629
        701    29 -103.084298 -103.099461    0.015163  24.817    0.00028    0.00610
        702    29 -103.084272 -103.096439    0.012167  24.817    0.00027    0.00601
        703    29 -103.084246 -103.093284    0.009037  24.817    0.00027    0.00592
        704    29 -103.084224 -103.090199    0.005975  24.817    0.00027    0.00577
        705    29 -103.084206 -103.087313    0.003107  24.817    0.00027    0.00552
        706    29 -103.084194 -103.084688    0.000495  24.817    0.00027    0.00521
        707    29 -103.084188 -103.082340    0.001848  24.817    0.00028    0.00489
        708    29 -103.084191 -103.080258    0.003933  24.817    0.00028    0.00463
        709    29 -103.084202 -103.078415    0.005787  24.817    0.00028    0.00448
        710    29 -103.084221 -103.076791    0.007430  24.817    0.00028    0.00446
        711    29 -103.084247 -103.075365    0.008881  24.817    0.00027    0.00453
        712    29 -103.084279 -103.074128    0.010151  24.817    0.00027    0.00466
        713    29 -103.084317 -103.073078    0.011239  24.817    0.00026    0.00478
        714    29 -103.084357 -103.072216    0.012141  24.817    0.00025    0.00487
        715    29 -103.084399 -103.071545    0.012853  24.817    0.00025    0.00492
        716    29 -103.084440 -103.071065    0.013375  24.817    0.00025    0.00490
        717    29 -103.084480 -103.070765    0.013715  24.817    0.00025    0.00484
        718    29 -103.084517 -103.070638    0.013879  24.817    0.00025    0.00473
        719    29 -103.084551 -103.070665    0.013886  24.817    0.00026    0.00460
        720    29 -103.084575 -103.070828    0.013747  24.817    0.00026    0.00445
        721    27 -103.084597 -103.071231    0.013367  24.817    0.00027    0.00430
        722    27 -103.084617 -103.071849    0.012768  24.817    0.00027    0.00417
        723    27 -103.084628 -103.072492    0.012136  24.817    0.00028    0.00411
        724    27 -103.084633 -103.073827    0.010806  24.817    0.00028    0.00407
        725    27 -103.084636 -103.075240    0.009396  24.817    0.00027    0.00434
        726    27 -103.084633 -103.077027    0.007606  24.817    0.00027    0.00424
        727    29 -103.084630 -103.078131    0.006499  24.817    0.00026    0.00433
        728    29 -103.084627 -103.078971    0.005656  24.817    0.00025    0.00438
        729    29 -103.084625 -103.079585    0.005040  24.817    0.00025    0.00436
        730    29 -103.084624 -103.080040    0.004584  24.817    0.00024    0.00428
        731    29 -103.084626 -103.080397    0.004228  24.817    0.00024    0.00414
        732    29 -103.084629 -103.080702    0.003927  24.817    0.00024    0.00395
        733    29 -103.084634 -103.080986    0.003648  24.817    0.00024    0.00374
        734    29 -103.084641 -103.081271    0.003369  24.817    0.00024    0.00354
        735    27 -103.084648 -103.081574    0.003075  24.817    0.00024    0.00337
        736    27 -103.084656 -103.081895    0.002761  24.817    0.00024    0.00325
        737    27 -103.084662 -103.082255    0.002407  24.817    0.00024    0.00319
        738    27 -103.084668 -103.082661    0.002008  24.817    0.00024    0.00319
        739    27 -103.084673 -103.083118    0.001555  24.817    0.00024    0.00322
        740    27 -103.084676 -103.083636    0.001040  24.817    0.00024    0.00326
        741    27 -103.084677 -103.084217    0.000460  24.817    0.00023    0.00330
        742    27 -103.084677 -103.084865    0.000188  24.817    0.00023    0.00332
        743    29 -103.084674 -103.085573    0.000899  24.817    0.00024    0.00331
        744    29 -103.084669 -103.086347    0.001678  24.817    0.00024    0.00329
        745    29 -103.084663 -103.087166    0.002503  24.817    0.00024    0.00326
        746    29 -103.084654 -103.088018    0.003364  24.817    0.00024    0.00324
        747    29 -103.084643 -103.088885    0.004242  24.817    0.00024    0.00322
        748    29 -103.084630 -103.089749    0.005119  24.817    0.00024    0.00321
        749    29 -103.084615 -103.090583    0.005968  24.817    0.00024    0.00321
        750    29 -103.084598 -103.091362    0.006764  24.817    0.00024    0.00321
        751    29 -103.084579 -103.092058    0.007479  24.817    0.00023    0.00320
        752    29 -103.084559 -103.092649    0.008090  24.817    0.00023    0.00318
        753    29 -103.084537 -103.093107    0.008570  24.817    0.00023    0.00315
        754    29 -103.084514 -103.093416    0.008902  24.817    0.00023    0.00311
        755    29 -103.084490 -103.093558    0.009067  24.817    0.00022    0.00305
        756    29 -103.084467 -103.093526    0.009059  24.817    0.00022    0.00298
        757    29 -103.084444 -103.093317    0.008873  24.817    0.00022    0.00291
        758    29 -103.084421 -103.092933    0.008512  24.817    0.00022    0.00284
        759    29 -103.084400 -103.092384    0.007984  24.817    0.00021    0.00278
        760    29 -103.084381 -103.091682    0.007301  24.817    0.00021    0.00273
        761    29 -103.084364 -103.090847    0.006484  24.817    0.00021    0.00268
        762    29 -103.084349 -103.089900    0.005551  24.817    0.00021    0.00263
        763    29 -103.084337 -103.088862    0.004524  24.817    0.00021    0.00259
        764    29 -103.084328 -103.087756    0.003428  24.817    0.00021    0.00255
        765    29 -103.084322 -103.086607    0.002284  24.817    0.00021    0.00252
        766    29 -103.084319 -103.085437    0.001118  24.817    0.00021    0.00248
        767    29 -103.084319 -103.084266    0.000053  24.817    0.00021    0.00245
        768    29 -103.084321 -103.083115    0.001207  24.817    0.00021    0.00242
        769    29 -103.084327 -103.082000    0.002327  24.817    0.00021    0.00240
        770    29 -103.084334 -103.080940    0.003394  24.817    0.00021    0.00239
        771    29 -103.084344 -103.079948    0.004397  24.817    0.00021    0.00239
        772    29 -103.084356 -103.079037    0.005319  24.817    0.00021    0.00240
        773    29 -103.084370 -103.078218    0.006151  24.817    0.00021    0.00241
        774    29 -103.084385 -103.077500    0.006885  24.817    0.00022    0.00242
        775    29 -103.084402 -103.076893    0.007509  24.817    0.00022    0.00244
        776    29 -103.084419 -103.076401    0.008018  24.817    0.00022    0.00245
        777    29 -103.084437 -103.076026    0.008411  24.817    0.00022    0.00245
        778    29 -103.084456 -103.075776    0.008680  24.817    0.00022    0.00245
        779    29 -103.084475 -103.075648    0.008826  24.817    0.00022    0.00244
        780    29 -103.084494 -103.075643    0.008850  24.817    0.00022    0.00242
        781    29 -103.084512 -103.075758    0.008754  24.817    0.00023    0.00239
        782    29 -103.084530 -103.075990    0.008540  24.817    0.00023    0.00236
        783    29 -103.084547 -103.076332    0.008215  24.817    0.00023    0.00232
        784    29 -103.084564 -103.076778    0.007785  24.817    0.00023    0.00228
        785    29 -103.084579 -103.077319    0.007260  24.817    0.00024    0.00223
        786    29 -103.084592 -103.077945    0.006648  24.817    0.00024    0.00219
        787    29 -103.084604 -103.078646    0.005958  24.817    0.00024    0.00214
        788    27 -103.084614 -103.079408    0.005206  24.817    0.00024    0.00210
        789    27 -103.084622 -103.080215    0.004407  24.817    0.00024    0.00205
        790    27 -103.084628 -103.081059    0.003569  24.817    0.00024    0.00202
        791    27 -103.084632 -103.081924    0.002707  24.817    0.00024    0.00199
        792    27 -103.084633 -103.082795    0.001838  24.817    0.00024    0.00196
        793    27 -103.084633 -103.083658    0.000975  24.817    0.00024    0.00194
        794    27 -103.084630 -103.084498    0.000132  24.817    0.00024    0.00193
        795    30 -103.084624 -103.085387    0.000763  24.817    0.00024    0.00193
        796    29 -103.084615 -103.086272    0.001657  24.817    0.00024    0.00194
        797    29 -103.084602 -103.087136    0.002534  24.817    0.00024    0.00193
        798    27 -103.084589 -103.087837    0.003249  24.817    0.00024    0.00193
        799    27 -103.084574 -103.088389    0.003815  24.817    0.00024    0.00193
[...]
       4228    27 -103.086178 -103.085728    0.000449  13.534    0.00004    0.00017
       4229    26 -103.086181 -103.085720    0.000461  13.534    0.00004    0.00019
       4230    26 -103.086185 -103.085694    0.000491  13.534    0.00003    0.00022
       4231    26 -103.086188 -103.085645    0.000543  13.534    0.00003    0.00025
       4232    26 -103.086192 -103.085576    0.000616  13.534    0.00003    0.00027
       4233    24 -103.086196 -103.085493    0.000703  13.534    0.00003    0.00028
       4234    23 -103.086200 -103.085405    0.000794  13.534    0.00002    0.00028
       4235    23 -103.086204 -103.085324    0.000880  13.534    0.00002    0.00028
       4236    24 -103.086209 -103.085260    0.000949  13.534    0.00002    0.00027
       4237    26 -103.086214 -103.085222    0.000993  13.534    0.00001    0.00026
       4238    27 -103.086219 -103.085215    0.001004  13.534    0.00001    0.00025
       4239    27 -103.086224 -103.085244    0.000980  13.534    0.00001    0.00023
       4240    27 -103.086228 -103.085307    0.000922  13.534    0.00001    0.00021
       4241    23 -103.086232 -103.085401    0.000831  13.534    0.00002    0.00019
       4242    23 -103.086236 -103.085521    0.000715  13.534    0.00002    0.00016
       4243    24 -103.086238 -103.085659    0.000579  13.534    0.00002    0.00013
       4244    23 -103.086239 -103.085808    0.000431  13.534    0.00002    0.00010
       4245    23 -103.086240 -103.085962    0.000278  13.534    0.00002    0.00008
       4246    24 -103.086240 -103.086113    0.000127  13.534    0.00002    0.00007
       4247    23 -103.086239 -103.086256    0.000018  13.534    0.00002    0.00007
       4248    23 -103.086237 -103.086388    0.000151  13.534    0.00002    0.00008
       4249    23 -103.086234 -103.086505    0.000270  13.534    0.00002    0.00010
       4250    23 -103.086232 -103.086606    0.000374  13.534    0.00002    0.00012
       4251    23 -103.086228 -103.086690    0.000461  13.534    0.00002    0.00014
       4252    23 -103.086225 -103.086757    0.000532  13.534    0.00001    0.00016
       4253    26 -103.086221 -103.086809    0.000588  13.534    0.00001    0.00017
       4254    26 -103.086218 -103.086846    0.000628  13.534    0.00001    0.00018
       4255    27 -103.086214 -103.086869    0.000655  13.534    0.00001    0.00019
       4256    26 -103.086210 -103.086878    0.000668  13.534    0.00001    0.00019
       4257    24 -103.086206 -103.086875    0.000669  13.534    0.00001    0.00019
       4258    26 -103.086203 -103.086861    0.000658  13.534    0.00001    0.00018
       4259    27 -103.086200 -103.086835    0.000635  13.534    0.00001    0.00017
       4260    26 -103.086196 -103.086798    0.000602  13.534    0.00002    0.00016
       4261    26 -103.086194 -103.086751    0.000558  13.534    0.00002    0.00014
       4262    27 -103.086191 -103.086695    0.000504  13.534    0.00002    0.00013
       4263    26 -103.086189 -103.086629    0.000441  13.534    0.00002    0.00011
       4264    26 -103.086187 -103.086556    0.000369  13.534    0.00002    0.00009
       4265    27 -103.086186 -103.086476    0.000290  13.534    0.00002    0.00007
       4266    26 -103.086185 -103.086391    0.000206  13.534    0.00003    0.00005
       4267    25 -103.086185 -103.086303    0.000119  13.534    0.00003    0.00004
       4268    27 -103.086185 -103.086215    0.000030  13.534    0.00003    0.00004
       4269    27 -103.086186 -103.086127    0.000058  13.534    0.00002    0.00005
       4270    26 -103.086187 -103.086043    0.000144  13.534    0.00002    0.00006
       4271    27 -103.086189 -103.085965    0.000224  13.534    0.00002    0.00008
       4272    26 -103.086191 -103.085894    0.000297  13.534    0.00002    0.00009
       4273    27 -103.086193 -103.085831    0.000362  13.534    0.00002    0.00010
       4274    27 -103.086196 -103.085779    0.000416  13.534    0.00002    0.00011
       4275    26 -103.086198 -103.085738    0.000460  13.534    0.00002    0.00012
       4276    24 -103.086201 -103.085709    0.000492  13.534    0.00001    0.00012
       4277    24 -103.086204 -103.085692    0.000512  13.534    0.00001    0.00013
       4278    23 -103.086207 -103.085686    0.000521  13.534    0.00001    0.00012
       4279    26 -103.086209 -103.085691    0.000518  13.534    0.00001    0.00012
       4280    27 -103.086212 -103.085708    0.000504  13.534    0.00001    0.00011
       4281    24 -103.086214 -103.085734    0.000480  13.534    0.00001    0.00011
       4282    21 -103.086216 -103.085769    0.000447  13.534    0.00001    0.00010
       4283    23 -103.086218 -103.085813    0.000405  13.534    0.00001    0.00009
       4284    24 -103.086219 -103.085862    0.000357  13.534    0.00001    0.00007
       4285    23 -103.086221 -103.085917    0.000303  13.534    0.00001    0.00006
       4286    26 -103.086222 -103.085977    0.000245  13.534    0.00001    0.00005
       4287    26 -103.086222 -103.086039    0.000183  13.534    0.00001    0.00004
       4288    27 -103.086223 -103.086103    0.000120  13.534    0.00001    0.00003
       4289    26 -103.086223 -103.086167    0.000055  13.534    0.00001    0.00003
       4290    26 -103.086222 -103.086231    0.000009  13.534    0.00001    0.00004
       4291    23 -103.086222 -103.086293    0.000071  13.534    0.00001    0.00005
       4292    24 -103.086221 -103.086351    0.000130  13.534    0.00001    0.00006
       4293    23 -103.086220 -103.086405    0.000186  13.534    0.00001    0.00006
       4294    23 -103.086218 -103.086454    0.000236  13.534    0.00001    0.00007
       4295    26 -103.086217 -103.086497    0.000281  13.534    0.00001    0.00008
       4296    26 -103.086215 -103.086533    0.000318  13.534    0.00001    0.00008
       4297    27 -103.086213 -103.086562    0.000349  13.534    0.00001    0.00009
       4298    24 -103.086211 -103.086583    0.000372  13.534    0.00001    0.00009
       4299    24 -103.086209 -103.086596    0.000386  13.534    0.00001    0.00009
       4300    24 -103.086207 -103.086600    0.000393  13.534    0.00001    0.00008
       4301    24 -103.086205 -103.086597    0.000391  13.534    0.00001    0.00008
       4302    24 -103.086204 -103.086586    0.000382  13.534    0.00001    0.00007
       4303    26 -103.086202 -103.086568    0.000366  13.534    0.00001    0.00007
       4304    26 -103.086201 -103.086543    0.000343  13.534    0.00001    0.00006
       4305    27 -103.086199 -103.086513    0.000313  13.534    0.00001    0.00005
       4306    26 -103.086198 -103.086478    0.000279  13.534    0.00001    0.00004
       4307    26 -103.086197 -103.086438    0.000241  13.534    0.00001    0.00003
       4308    26 -103.086197 -103.086396    0.000200  13.534    0.00001    0.00003
       4309    26 -103.086196 -103.086352    0.000156  13.534    0.00002    0.00002
       4310    27 -103.086196 -103.086308    0.000111  13.534    0.00002    0.00002
       4311    26 -103.086196 -103.086263    0.000067  13.534    0.00001    0.00003
       4312    26 -103.086197 -103.086219    0.000023  13.534    0.00001    0.00003
       4313    27 -103.086197 -103.086177    0.000020  13.534    0.00001    0.00004
       4314    26 -103.086198 -103.086138    0.000059  13.534    0.00001    0.00004
       4315    27 -103.086199 -103.086103    0.000096  13.534    0.00001    0.00005
       4316    26 -103.086199 -103.086071    0.000129  13.534    0.00001    0.00005
       4317    26 -103.086201 -103.086043    0.000157  13.534    0.00001    0.00006
       4318    24 -103.086202 -103.086021    0.000181  13.534    0.00001    0.00006
       4319    24 -103.086203 -103.086003    0.000199  13.534    0.00001    0.00006
       4320    24 -103.086204 -103.085991    0.000213  13.534    0.00001    0.00006
       4321    25 -103.086205 -103.085983    0.000222  13.534    0.00001    0.00006
       4322    24 -103.086206 -103.085981    0.000225  13.534    0.00001    0.00005
       4323    24 -103.086207 -103.085983    0.000224  13.534    0.00001    0.00005
       4324    24 -103.086208 -103.085990    0.000218  13.534    0.00001    0.00005
       4325    24 -103.086209 -103.086001    0.000208  13.534    0.00001    0.00004
       4326    26 -103.086210 -103.086015    0.000195  13.534    0.00001    0.00004
       4327    27 -103.086211 -103.086033    0.000178  13.534    0.00001    0.00003
       4328    27 -103.086211 -103.086053    0.000158  13.534    0.00001    0.00003
       4329    26 -103.086212 -103.086075    0.000137  13.534    0.00001    0.00002
       4330    27 -103.086212 -103.086098    0.000114  13.534    0.00001    0.00002
       4331    27 -103.086212 -103.086122    0.000090  13.534    0.00001    0.00002
       4332    26 -103.086212 -103.086147    0.000065  13.534    0.00001    0.00002
       4333    27 -103.086212 -103.086171    0.000041  13.534    0.00001    0.00003
       4334    27 -103.086212 -103.086194    0.000018  13.534    0.00001    0.00003
       4335    26 -103.086211 -103.086215    0.000004  13.534    0.00001    0.00003
       4336    27 -103.086211 -103.086236    0.000025  13.534    0.00001    0.00004
       4337    24 -103.086210 -103.086254    0.000043  13.534    0.00001    0.00004
       4338    24 -103.086210 -103.086269    0.000059  13.534    0.00001    0.00004
       4339    24 -103.086209 -103.086282    0.000073  13.534    0.00001    0.00004
       4340    24 -103.086208 -103.086292    0.000084  13.534    0.00001    0.00004
       4341    24 -103.086208 -103.086300    0.000092  13.534    0.00001    0.00004
       4342    24 -103.086207 -103.086305    0.000098  13.534    0.00001    0.00004
       4343    24 -103.086206 -103.086307    0.000100  13.534    0.00001    0.00004
       4344    24 -103.086206 -103.086306    0.000100  13.534    0.00001    0.00003
       4345    24 -103.086205 -103.086303    0.000098  13.534    0.00001    0.00003
       4346    24 -103.086205 -103.086297    0.000093  13.534    0.00001    0.00003
       4347    24 -103.086204 -103.086290    0.000086  13.534    0.00001    0.00002
       4348    24 -103.086204 -103.086280    0.000077  13.534    0.00001    0.00002
       4349    24 -103.086203 -103.086269    0.000066  13.534    0.00001    0.00002
       4350    24 -103.086203 -103.086257    0.000054  13.534    0.00001    0.00001
       4351    24 -103.086203 -103.086245    0.000042  13.534    0.00001    0.00001
       4352    24 -103.086203 -103.086232    0.000029  13.534    0.00001    0.00001
       4353    24 -103.086203 -103.086218    0.000015  13.534    0.00001    0.00001
       4354    24 -103.086203 -103.086205    0.000002  13.534    0.00001    0.00002
       4355    24 -103.086203 -103.086193    0.000011  13.534    0.00001    0.00002
       4356    25 -103.086203 -103.086181    0.000023  13.534    0.00001    0.00002
       4357    24 -103.086204 -103.086170    0.000034  13.534    0.00001    0.00002
       4358    24 -103.086204 -103.086161    0.000043  13.534    0.00001    0.00003
       4359    24 -103.086204 -103.086152    0.000052  13.534    0.00001    0.00003
       4360    24 -103.086205 -103.086146    0.000059  13.534    0.00001    0.00003
       4361    24 -103.086205 -103.086141    0.000064  13.534    0.00001    0.00003
       4362    23 -103.086206 -103.086138    0.000067  13.534    0.00001    0.00003
       4363    23 -103.086206 -103.086137    0.000069  13.534    0.00001    0.00003
       4364    24 -103.086206 -103.086138    0.000069  13.534    0.00001    0.00003
       4365    24 -103.086207 -103.086140    0.000067  13.534    0.00001    0.00002
       4366    24 -103.086207 -103.086143    0.000064  13.534    0.00001    0.00002
       4367    24 -103.086207 -103.086149    0.000059  13.534    0.00001    0.00002
       4368    24 -103.086208 -103.086155    0.000053  13.534    0.00001    0.00002
       4369    24 -103.086208 -103.086163    0.000045  13.534    0.00001    0.00002
       4370    24 -103.086208 -103.086171    0.000037  13.534    0.00001    0.00001
       4371    24 -103.086208 -103.086180    0.000028  13.534    0.00001    0.00001
       4372    24 -103.086208 -103.086189    0.000019  13.534    0.00001    0.00001
       4373    24 -103.086208 -103.086199    0.000009  13.534    0.00001    0.00001
       4374    24 -103.086208 -103.086209    0.000000  13.534    0.00001    0.00001
       4375    24 -103.086208 -103.086218    0.000010  13.534    0.00001    0.00001
       4376    24 -103.086208 -103.086227    0.000019  13.534    0.00001    0.00001
       4377    24 -103.086208 -103.086235    0.000027  13.534    0.00001    0.00002
       4378    24 -103.086208 -103.086242    0.000035  13.534    0.00001    0.00002
       4379    24 -103.086207 -103.086249    0.000041  13.534    0.00001    0.00002
       4380    24 -103.086207 -103.086254    0.000047  13.534    0.00001    0.00002
       4381    24 -103.086207 -103.086258    0.000052  13.534    0.00001    0.00002
       4382    24 -103.086206 -103.086261    0.000055  13.534    0.00001    0.00002
       4383    24 -103.086206 -103.086263    0.000057  13.534    0.00001    0.00002
       4384    25 -103.086206 -103.086263    0.000057  13.534    0.00001    0.00002
       4385    24 -103.086206 -103.086262    0.000057  13.534    0.00001    0.00002
       4386    23 -103.086205 -103.086260    0.000055  13.534    0.00001    0.00002
       4387    24 -103.086205 -103.086257    0.000052  13.534    0.00001    0.00001
       4388    23 -103.086205 -103.086253    0.000048  13.534    0.00001    0.00001
       4389    23 -103.086205 -103.086248    0.000043  13.534    0.00001    0.00001
       4390    24 -103.086204 -103.086242    0.000038  13.534    0.00001    0.00001
       4391    23 -103.086204 -103.086236    0.000031  13.534    0.00001    0.00001
       4392    23 -103.086204 -103.086229    0.000025  13.534    0.00001    0.00001
       4393    24 -103.086204 -103.086222    0.000017  13.534    0.00001    0.00001
       4394    24 -103.086204 -103.086214    0.000010  13.534    0.00001    0.00001
       4395    24 -103.086204 -103.086207    0.000003  13.534    0.00001    0.00001
       4396    23 -103.086204 -103.086200    0.000004  13.534    0.00001    0.00001
       4397    23 -103.086204 -103.086193    0.000011  13.534    0.00001    0.00001
       4398    24 -103.086204 -103.086187    0.000018  13.534    0.00001    0.00001
       4399    23 -103.086205 -103.086181    0.000024  13.534    0.00001    0.00001
       4400    23 -103.086205 -103.086176    0.000029  13.534    0.00001    0.00001
       4401    24 -103.086205 -103.086171    0.000034  13.534    0.00001    0.00001
       4402    24 -103.086205 -103.086167    0.000038  13.534    0.00001    0.00001
       4403    24 -103.086205 -103.086165    0.000041  13.534    0.00001    0.00001
       4404    24 -103.086205 -103.086163    0.000043  13.534    0.00001    0.00001
       4405    24 -103.086206 -103.086161    0.000044  13.534    0.00001    0.00001
       4406    24 -103.086206 -103.086161    0.000045  13.534    0.00001    0.00001
       4407    24 -103.086206 -103.086161    0.000044  13.534    0.00001    0.00001
       4408    24 -103.086206 -103.086163    0.000044  13.534    0.00001    0.00001
       4409    24 -103.086206 -103.086164    0.000042  13.534    0.00001    0.00001
       4410    24 -103.086206 -103.086167    0.000040  13.534    0.00001    0.00001
       4411    24 -103.086206 -103.086170    0.000037  13.534    0.00001    0.00001
       4412    24 -103.086206 -103.086173    0.000034  13.534    0.00001    0.00001
       4413    20 -103.086207 -103.086176    0.000030  13.534    0.00001    0.00001
       4414    24 -103.086207 -103.086180    0.000026  13.534    0.00001    0.00001
       4415    21 -103.086207 -103.086184    0.000023  13.534    0.00001    0.00001
       4416    24 -103.086207 -103.086188    0.000019  13.534    0.00001    0.00001
       4417    20 -103.086206 -103.086192    0.000015  13.534    0.00001    0.00001
       4418    24 -103.086206 -103.086195    0.000011  13.534    0.00001    0.00001
       4419    19 -103.086206 -103.086198    0.000008  13.534    0.00001    0.00001
       4420    20 -103.086206 -103.086201    0.000005  13.534    0.00001    0.00001
       4421    23 -103.086206 -103.086204    0.000002  13.534    0.00001    0.00001
       4422    20 -103.086206 -103.086206    0.000000  13.534    0.00001    0.00001
       4423    23 -103.086206 -103.086208    0.000002  13.534    0.00001    0.00001
       4424    23 -103.086206 -103.086209    0.000004  13.534    0.00001    0.00001
       4425    24 -103.086206 -103.086210    0.000005  13.534    0.00001    0.00001
       4426    23 -103.086206 -103.086211    0.000005  13.534    0.00001    0.00001
       4427    24 -103.086205 -103.086211    0.000005  13.534    0.00001    0.00001
       4428    24 -103.086205 -103.086210    0.000005  13.534    0.00001    0.00001
       4429    24 -103.086205 -103.086209    0.000004  13.534    0.00001    0.00001
       4430    24 -103.086205 -103.086208    0.000003  13.534    0.00001    0.00001
       4431    24 -103.086205 -103.086207    0.000002  13.534    0.00001    0.00001
       4432    24 -103.086205 -103.086205    0.000000  13.534    0.00001    0.00001

        ==> Orbital Optimization <==

            Orbital Optimization converged in   1 iterations 
            Total energy change: -9.958399e-09
            Final gradient norm: 7.554138e-05


      v2RDM iterations converged!

      v2RDM total spin [S(S+1)]:            -0.000001
    * v2RDM total energy:           -103.086205114451


 # Natural Orbital Occupation Numbers (alpha) #
 Irrep: 1
      1:  1.0000000
      2:  1.0000000
      3:  0.9980434
      4:  0.0000000
      5:  0.0000000
      6:  0.0000000
      7:  0.0000000

 Irrep: 2
      1:  0.0000000

 Irrep: 3
      1:  0.0042497
      2:  0.0000000
      3:  0.0000000

 Irrep: 4
      1:  0.0042496
      2:  0.0000000
      3:  0.0000000

 Irrep: 5
      1:  0.0000000

 Irrep: 6
      1:  1.0000000
      2:  1.0000000
      3:  0.0016416
      4:  0.0000000
      5:  0.0000000
      6:  0.0000000
      7:  0.0000000

 Irrep: 7
      1:  0.9959079
      2:  0.0000000
      3:  0.0000000

 Irrep: 8
      1:  0.9959078
      2:  0.0000000
      3:  0.0000000


 # Natural Orbital Occupation Numbers (beta) #
 Irrep: 1
      1:  1.0000000
      2:  1.0000000
      3:  0.9980434
      4:  0.0000000
      5:  0.0000000
      6:  0.0000000
      7:  0.0000000

 Irrep: 2
      1:  0.0000000

 Irrep: 3
      1:  0.0042497
      2:  0.0000000
      3:  0.0000000

 Irrep: 4
      1:  0.0042496
      2:  0.0000000
      3:  0.0000000

 Irrep: 5
      1:  0.0000000

 Irrep: 6
      1:  1.0000000
      2:  1.0000000
      3:  0.0016416
      4:  0.0000000
      5:  0.0000000
      6:  0.0000000
      7:  0.0000000

 Irrep: 7
      1:  0.9959079
      2:  0.0000000
      3:  0.0000000

 Irrep: 8
      1:  0.9959078
      2:  0.0000000
      3:  0.0000000


  ==> Iteration count <==

      Microiterations:                  110280
      Macroiterations:                    4433
      Orbital optimization steps:           10

  ==> Wall time <==

      Microiterations:                   11.53 s
      Macroiterations:                    5.05 s
      Orbital optimization:               1.09 s
      Total:                             18.67 s


*** tstop() called on wg-dhcp201d206d180.secure.wireless.fsu. at Fri Jun  3 15:52:35 2016
Module time:
	user time   =      18.64 seconds =       0.31 minutes
	system time =       0.10 seconds =       0.00 minutes
	total time  =         19 seconds =       0.32 minutes
Total time:
	user time   =      19.92 seconds =       0.33 minutes
	system time =       0.11 seconds =       0.00 minutes
	total time  =         20 seconds =       0.33 minutes
	SCF total energy..................................................PASSED
	v2RDM-CASSCF total energy.........................................PASSED

*** Psi4 exiting successfully. Buy a developer a beer!
