    -----------------------------------------------------------------------
          Psi4: An Open-Source Ab Initio Electronic Structure Package
                              Psi4 0.3.34 Driver

                          Git: Rev {master} f3d6bec dirty

    J. M. Turney, A. C. Simmonett, R. M. Parrish, E. G. Hohenstein,
    F. A. Evangelista, J. T. Fermann, B. J. Mintz, L. A. Burns, J. J. Wilke,
    M. L. Abrams, N. J. Russ, M. L. Leininger, C. L. Janssen, E. T. Seidl,
    W. D. Allen, H. F. Schaefer, R. A. King, E. F. Valeev, C. D. Sherrill,
    and T. D. Crawford, WIREs Comput. Mol. Sci. 2, 556-565 (2012)
    (doi: 10.1002/wcms.93)

                         Additional Contributions by
    A. E. DePrince, M. Saitow, U. Bozkaya, A. Yu. Sokolov
    -----------------------------------------------------------------------


    Psi4 started on: Thu Aug 20 09:24:09 2015

    Process ID:  24653
    PSI4DATADIR: /Users/deprince/psi4-install/psi4public/share/psi
    Memory level set to 256.000 MB

  ==> Input File <==

--------------------------------------------------------------------------
#! cc-pvdz N2 (6,6) active space Test DQG

sys.path.insert(0, '../../..')
import v2rdm_casscf

molecule n2 {
0 1
n
n 1 r
}

set {
  basis cc-pvdz
  scf_type cd
  cholesky_tolerance 1e-12
  d_convergence      1e-10
  maxiter 500
  frozen_docc  [ 2, 0, 0, 0, 0, 2, 0, 0 ]
  frozen_uocc  [ 4, 1, 2, 2, 1, 4, 2, 2 ]
}
set v2rdm_casscf {
  positivity dqg
  r_convergence  1e-4
  e_convergence  1e-4
  maxiter 20000
}

activate(n2)

n2.r     = 0.5
refscf   = -103.04337420425341 # TEST
refv2rdm = -103.086367952045   # TEST

energy('v2rdm-casscf')

compare_values(refscf, get_variable("SCF TOTAL ENERGY"), 8, "SCF total energy")
compare_values(refv2rdm, get_variable("CURRENT ENERGY"), 4, "v2RDM-CASSCF total energy")

n2.r     = 1.1
refscf   = -108.95379624015733 # TEST
refv2rdm = -109.094829146441   # TEST

energy('v2rdm-casscf')

compare_values(refscf, get_variable("SCF TOTAL ENERGY"), 8, "SCF total energy")
compare_values(refv2rdm, get_variable("CURRENT ENERGY"), 4, "v2RDM-CASSCF total energy")
--------------------------------------------------------------------------
/Users/deprince/chem/v2rdm_casscf/v2rdm_casscf.so loaded.
Setting geometry variable r to 0.500000

*** tstart() called on Eugenes-MacBook-Pro-2.local
*** at Thu Aug 20 09:24:09 2015


         ---------------------------------------------------------
                                   SCF
            by Justin Turney, Rob Parrish, and Andy Simmonett
                              RHF Reference
                        1 Threads,    256 MiB Core
         ---------------------------------------------------------

  ==> Geometry <==

    Molecular point group: d2h
    Full point group: D_inf_h

    Geometry (in Angstrom), charge = 0, multiplicity = 1:

       Center              X                  Y                   Z       
    ------------   -----------------  -----------------  -----------------
           N          0.000000000000     0.000000000000    -0.250000000000
           N          0.000000000000     0.000000000000     0.250000000000

  Running in d2h symmetry.

  Rotational constants: A = ************  B =      9.63082  C =      9.63082 [cm^-1]
  Rotational constants: A = ************  B = 288724.60708  C = 288724.60708 [MHz]
  Nuclear repulsion =   51.859366441819994

  Charge       = 0
  Multiplicity = 1
  Electrons    = 14
  Nalpha       = 7
  Nbeta        = 7

  ==> Algorithm <==

  SCF Algorithm Type is CD.
  DIIS enabled.
  MOM disabled.
  Fractional occupation disabled.
  Guess Type is CORE.
  Energy threshold   = 1.00e-08
  Density threshold  = 1.00e-10
  Integral threshold = 0.00e+00

  ==> Primary Basis <==

  Basis Set: CC-PVDZ
    Number of shells: 12
    Number of basis function: 28
    Number of Cartesian functions: 30
    Spherical Harmonics?: true
    Max angular momentum: 2

  ==> Pre-Iterations <==

   -------------------------------------------------------
    Irrep   Nso     Nmo     Nalpha   Nbeta   Ndocc  Nsocc
   -------------------------------------------------------
     Ag         7       7       0       0       0       0
     B1g        1       1       0       0       0       0
     B2g        3       3       0       0       0       0
     B3g        3       3       0       0       0       0
     Au         1       1       0       0       0       0
     B1u        7       7       0       0       0       0
     B2u        3       3       0       0       0       0
     B3u        3       3       0       0       0       0
   -------------------------------------------------------
    Total      28      28       7       7       7       0
   -------------------------------------------------------

 OEINTS: Overlap, kinetic, potential, dipole, and quadrupole integrals
         stored in file 35.

  ==> Integral Setup <==

  ==> CDJK: Cholesky-decomposed J/K Matrices <==

    J tasked:                     Yes
    K tasked:                     Yes
    wK tasked:                     No
    OpenMP threads:                 1
    Integrals threads:              1
    Memory (MB):                  183
    Algorithm:                   Core
    Integral Cache:              SAVE
    Schwarz Cutoff:             1E-12
    Cholesky tolerance:      1.00E-12
    No. Cholesky vectors:         342

  Minimum eigenvalue in the overlap matrix is 1.5735752976E-04.
  Using Symmetric Orthogonalization.
  SCF Guess: Core (One-Electron) Hamiltonian.

  ==> Iterations <==

                        Total Energy        Delta E     RMS |[F,P]|

    Occupation by irrep:
             Ag   B1g   B2g   B3g    Au   B1u   B2u   B3u 
    DOCC [     3,    0,    0,    0,    0,    2,    1,    1 ]

   @RHF iter   1:   -88.54248632162333   -8.85425e+01   4.57822e-01 
   @RHF iter   2:   -97.65432344860079   -9.11184e+00   2.89351e-01 DIIS
   @RHF iter   3:  -103.02104353617742   -5.36672e+00   2.16155e-02 DIIS
   @RHF iter   4:  -103.04290174334801   -2.18582e-02   2.90864e-03 DIIS
   @RHF iter   5:  -103.04336662616782   -4.64883e-04   3.30426e-04 DIIS
   @RHF iter   6:  -103.04337393110868   -7.30494e-06   4.64105e-05 DIIS
   @RHF iter   7:  -103.04337419566036   -2.64552e-07   1.10338e-05 DIIS
   @RHF iter   8:  -103.04337420419273   -8.53237e-09   8.62477e-07 DIIS
   @RHF iter   9:  -103.04337420425293   -6.01972e-11   7.21357e-08 DIIS
   @RHF iter  10:  -103.04337420425344   -5.11591e-13   2.10812e-09 DIIS
   @RHF iter  11:  -103.04337420425338    5.68434e-14   4.13686e-10 DIIS
   @RHF iter  12:  -103.04337420425350   -1.13687e-13   2.77994e-11 DIIS

  ==> Post-Iterations <==

    Orbital Energies (a.u.)
    -----------------------

    Doubly Occupied:                                                      

       1Ag   -16.484161     1B1u  -15.785893     2Ag    -1.444309  
       1B2u   -1.176599     1B3u   -1.176599     2B1u   -0.543616  
       3Ag    -0.524272  

    Virtual:                                                              

       1B3g    0.538181     1B2g    0.538181     2B3u    0.594641  
       2B2u    0.594641     3B1u    0.614128     4Ag     0.726476  
       5Ag     1.055370     2B3g    1.450590     2B2g    1.450590  
       6Ag     1.682008     1B1g    1.682008     4B1u    1.789550  
       3B3u    2.801107     3B2u    2.801107     5B1u    2.816412  
       1Au     2.841104     6B1u    2.841104     7Ag     3.148621  
       3B3g    4.716074     3B2g    4.716074     7B1u   13.525785  

    Final Occupation by Irrep:
             Ag   B1g   B2g   B3g    Au   B1u   B2u   B3u 
    DOCC [     3,    0,    0,    0,    0,    2,    1,    1 ]

  Energy converged.

  @RHF Final Energy:  -103.04337420425350

   => Energetics <=

    Nuclear Repulsion Energy =             51.8593664418199936
    One-Electron Energy =                -235.5345802006834788
    Two-Electron Energy =                  80.6318395546100390
    DFT Exchange-Correlation Energy =       0.0000000000000000
    Empirical Dispersion Energy =           0.0000000000000000
    PCM Polarization Energy =               0.0000000000000000
    EFP Energy =                            0.0000000000000000
    Total Energy =                       -103.0433742042534533

    Alert: EFP and PCM quantities not currently incorporated into SCF psivars.

Properties will be evaluated at   0.000000,   0.000000,   0.000000 Bohr
  ==> Properties <==


Properties computed using the SCF density matrix

  Nuclear Dipole Moment: (a.u.)
     X:     0.0000      Y:     0.0000      Z:     0.0000

  Electronic Dipole Moment: (a.u.)
     X:     0.0000      Y:     0.0000      Z:     0.0000

  Dipole Moment: (a.u.)
     X:     0.0000      Y:     0.0000      Z:     0.0000     Total:     0.0000

  Dipole Moment: (Debye)
     X:     0.0000      Y:     0.0000      Z:     0.0000     Total:     0.0000


  Saving occupied orbitals to File 180.

*** tstop() called on Eugenes-MacBook-Pro-2.local at Thu Aug 20 09:24:10 2015
Module time:
	user time   =       0.62 seconds =       0.01 minutes
	system time =       0.03 seconds =       0.00 minutes
	total time  =          1 seconds =       0.02 minutes
Total time:
	user time   =       0.62 seconds =       0.01 minutes
	system time =       0.03 seconds =       0.00 minutes
	total time  =          1 seconds =       0.02 minutes
Reading options from the V2RDM_CASSCF block
Calling plugin v2rdm_casscf.so.

*** tstart() called on Eugenes-MacBook-Pro-2.local
*** at Thu Aug 20 09:24:10 2015



        *******************************************************
        *                                                     *
        *    v-2RDM                                           *
        *                                                     *
        *    Ground-state variational 2-RDM optimization      *
        *    using a boundary-point semidefinite solver       *
        *                                                     *
        *    Eugene DePrince                                  *
        *                                                     *
        *******************************************************

  ==> Input parameters <==

        Freeze core orbitals?                 yes
        Number of frozen core orbitals:         4
        Number of active occupied orbitals:     3
        Number of active virtual orbitals:      3
        Number of frozen virtual orbitals:     18
        r_convergence:                  1.000e-04
        e_convergence:                  1.000e-04
        cg_convergence:                 1.000e-05
        maxiter:                            20000
        cg_maxiter:                         10000

  ==> Memory requirements <==

        D2:                          0.00 mb
        Q2:                          0.00 mb
        G2:                          0.01 mb

        Total number of variables:           1500
        Total number of constraints:         1282
        Total memory requirements:        1.15 mb

    ==> Transform three-electron integrals <==


        Time for integral transformation:     0.03 s


    reference energy:        -103.043374204253
    frozen core energy:      -138.046901361522
    initial 2-RDM energy:     -86.084606776647

      oiter iiter        E(p)        E(d)      E gap)      mu     eps(p)     eps(d)
          0    72 -107.299025  145.966102  253.265128   1.000   56.41110   72.36214
          1    41  -85.282786 -267.520155  182.237369   1.000    9.01716   30.48379
          2    42 -110.440397 -111.679967    1.239570   1.000   13.57204    6.14879
          3    42  -97.506475 -102.173217    4.666742   1.000    6.57232    3.65161
          4    42 -102.196059 -102.193917    0.002142   1.000    3.48073    2.78016
          5    42  -98.605482  -98.926767    0.321285   1.000    1.66006    2.04474
          6    42 -101.269763  -98.962220    2.307542   1.000    1.14740    1.46568
          7    35 -100.417999  -98.008929    2.409071   1.000    0.77063    1.23479
          8    38 -101.383818 -100.193950    1.189868   1.000    0.44061    0.78897
          9    39 -101.029772 -100.111752    0.918021   1.000    0.23446    0.63627
         10    42 -101.452719 -100.193093    1.259627   1.000    0.24364    0.51427
         11    38 -101.477378  -99.822901    1.654477   1.000    0.17986    0.45486
         12    41 -101.757574  -99.957091    1.800483   1.000    0.16361    0.41922
         13    40 -101.841448 -100.169965    1.671484   1.000    0.19617    0.38841
         14    39 -101.986225 -100.452103    1.534122   1.000    0.16201    0.37044
         15    41 -102.072463 -100.525526    1.546937   1.000    0.14069    0.35856
         16    39 -102.196334 -100.543767    1.652567   1.000    0.13754    0.34984
         17    40 -102.296181 -100.591900    1.704281   1.000    0.15803    0.34012
         18    38 -102.402156 -100.699311    1.702845   1.000    0.16157    0.32839
         19    38 -102.489640 -100.811593    1.678048   1.000    0.15112    0.31536
         20    38 -102.563962 -100.955751    1.608211   1.000    0.17458    0.29095
         21    40 -102.618510 -101.310745    1.307764   1.000    0.22741    0.24598
         22    40 -102.647534 -101.918042    0.729492   1.000    0.25202    0.18980
         23    41 -102.659710 -102.436896    0.222814   1.000    0.21104    0.17075
         24    39 -102.663044 -102.720385    0.057342   1.000    0.13930    0.18250
         25    32 -102.665215 -102.743539    0.078324   1.000    0.08627    0.18448
         26    40 -102.674948 -102.585352    0.089596   1.000    0.08894    0.17193
         27    41 -102.693087 -102.316720    0.376367   1.000    0.10807    0.15738
         28    41 -102.719976 -102.055214    0.664762   1.000    0.10506    0.15041
         29    38 -102.751036 -101.884270    0.866767   1.000    0.08597    0.15046
         30    32 -102.780985 -101.839693    0.941292   1.000    0.06359    0.15152
         31    38 -102.806344 -101.889292    0.917052   1.000    0.05105    0.15064
         32    40 -102.827290 -101.999419    0.827871   1.000    0.05142    0.14711
         33    41 -102.844376 -102.140055    0.704321   1.000    0.08480    0.14064
         34    38 -102.854730 -102.337416    0.517314   1.000    0.09655    0.13327
         35    33 -102.856074 -102.478293    0.377781   1.000    0.07760    0.13025
         36    38 -102.859474 -102.476059    0.383415   1.000    0.06077    0.12852
         37    40 -102.872527 -102.379524    0.493004   1.000    0.05343    0.12739
         38    38 -102.892377 -102.272534    0.619843   1.000    0.04087    0.12777
         39    35 -102.917203 -102.204557    0.712646   1.000    0.02516    0.12820
         40    38 -102.941065 -102.196521    0.744544   1.000    0.02283    0.12694
         41    41 -102.961229 -102.233659    0.727570   1.000    0.02936    0.12504
         42    41 -102.976582 -102.281867    0.694715   1.000    0.02914    0.12427
         43    38 -102.988576 -102.313723    0.674853   1.000    0.02235    0.12467
         44    35 -102.999790 -102.317309    0.682481   1.000    0.01510    0.12513
         45    32 -103.011843 -102.299633    0.712209   1.000    0.01348    0.12503
         46    40 -103.025691 -102.274603    0.751088   1.000    0.01634    0.12456
         47    40 -103.040008 -102.257318    0.782690   1.000    0.01892    0.12325
         48    35 -103.055964 -102.267514    0.788450   1.000    0.07073    0.10889
         49    41 -103.083287 -102.481494    0.601793   1.000    0.14004    0.06892
         50    42 -103.100687 -102.939624    0.161062   1.000    0.14703    0.03116
         51    47 -103.088005 -103.351298    0.263293   1.000    0.10421    0.04617
         52    41 -103.064193 -103.550571    0.486377   1.000    0.04192    0.05487
         53    35 -103.039529 -103.520448    0.480920   1.000    0.03893    0.04742
         54    41 -103.023308 -103.328013    0.304705   1.000    0.07083    0.03066
         55    41 -103.019852 -103.078659    0.058806   1.000    0.07407    0.01363
         56    46 -103.028710 -102.876865    0.151845   1.000    0.05146    0.01849
         57    41 -103.043203 -102.785362    0.257841   1.000    0.01998    0.02658
         58    38 -103.056695 -102.812816    0.243879   1.000    0.02375    0.02438
         59    40 -103.063562 -102.916031    0.147531   1.000    0.04012    0.01440
         60    42 -103.064318 -103.044112    0.020206   1.000    0.04064    0.00374
         61    52 -103.058848 -103.145507    0.086659   1.000    0.02838    0.01013
         62    41 -103.051332 -103.188583    0.137251   1.000    0.01376    0.01420
         63    38 -103.044822 -103.171515    0.126693   1.000    0.01567    0.01247
         64    40 -103.041464 -103.113898    0.072434   1.000    0.02229    0.00710
         65    41 -103.041879 -103.046453    0.004574   1.000    0.02186    0.00311
         66    42 -103.044746 -102.995432    0.049314   1.000    0.01590    0.00622
         67    37 -103.048784 -102.976802    0.071982   1.000    0.01103    0.00772
         68    36 -103.051696 -102.987867    0.063830   1.000    0.01259    0.00670
         69    41 -103.053418 -103.018178    0.035239   1.000    0.01511    0.00411
         70    46 -103.052951 -103.054143    0.001192   1.000    0.01455    0.00261
         71    47 -103.051534 -103.079205    0.027670   1.000    0.01171    0.00388
         72    41 -103.049400 -103.088607    0.039207   1.000    0.00974    0.00458
         73    37 -103.047633 -103.082380    0.034747   1.000    0.01019    0.00401
         74    41 -103.046606 -103.065988    0.019382   1.000    0.01109    0.00274
         75    41 -103.046141 -103.047366    0.001225   1.000    0.01000    0.00226
         76    41 -103.046820 -103.034012    0.012807   1.000    0.00911    0.00255
         77    41 -103.048021 -103.029300    0.018721   1.000    0.00872    0.00274
         78    41 -103.049045 -103.031897    0.017148   1.000    0.00888    0.00252
         79    42 -103.049734 -103.039248    0.010486   1.000    0.00905    0.00202
         80    47 -103.049777 -103.048087    0.001689   1.000    0.00895    0.00169
         81    47 -103.049388 -103.055333    0.005945   1.000    0.00855    0.00181
         82    41 -103.048782 -103.059361    0.010579   1.000    0.00814    0.00192
         83    41 -103.048146 -103.059281    0.011135   1.000    0.00792    0.00188
         84    41 -103.047746 -103.055903    0.008157   1.000    0.00788    0.00161
         85    41 -103.047592 -103.050747    0.003155   1.000    0.00780    0.00140
         86    41 -103.047769 -103.045874    0.001895   1.000    0.00766    0.00136
         87    41 -103.048106 -103.042892    0.005215   1.000    0.00752    0.00141
         88    41 -103.049158 -103.042380    0.006778   1.000    0.00716    0.00143
         89    40 -103.049230 -103.044414    0.004816   1.000    0.00716    0.00128
         90    41 -103.049391 -103.047055    0.002337   1.000    0.00711    0.00118
         91    41 -103.049949 -103.049745    0.000204   1.000    0.00671    0.00119
         92    41 -103.049874 -103.051870    0.001996   1.000    0.00637    0.00117
         93    41 -103.050244 -103.052381    0.002137   1.000    0.00613    0.00116
         94    41 -103.049876 -103.051894    0.002018   1.000    0.00604    0.00109
         95    42 -103.050900 -103.050121    0.000779   1.000    0.00567    0.00112
         96    43 -103.050278 -103.049027    0.001251   1.000    0.00560    0.00105
         97    47 -103.050695 -103.047510    0.003185   1.000    0.00552    0.00099
         98    43 -103.050456 -103.047118    0.003338   1.000    0.00548    0.00094
         99    42 -103.050566 -103.046769    0.003797   1.000    0.00541    0.00096
        100    43 -103.050515 -103.047253    0.003262   1.000    0.00535    0.00098
        101    42 -103.050542 -103.048493    0.002049   1.000    0.00526    0.00092
        102    43 -103.050542 -103.049261    0.001281   1.000    0.00519    0.00091
        103    43 -103.050557 -103.050186    0.000370   1.000    0.00509    0.00085
        104    47 -103.050487 -103.050205    0.000282   1.000    0.00506    0.00082
        105    47 -103.050461 -103.049603    0.000859   1.000    0.00502    0.00078
        106    47 -103.050425 -103.048618    0.001807   1.000    0.00498    0.00075
        107    47 -103.050421 -103.047724    0.002697   1.000    0.00488    0.00080
        108    47 -103.050420 -103.047546    0.002874   1.000    0.00474    0.00083
        109    47 -103.050419 -103.048091    0.002328   1.000    0.00459    0.00091
        110    47 -103.050381 -103.049379    0.001002   1.000    0.00449    0.00082
        111    47 -103.050375 -103.049917    0.000458   1.000    0.00442    0.00086
        112    47 -103.050323 -103.050763    0.000439   1.000    0.00441    0.00075
        113    47 -103.050314 -103.050036    0.000277   1.000    0.00443    0.00069
        114    53 -103.050265 -103.049156    0.001109   1.000    0.00444    0.00065
        115    53 -103.050254 -103.047980    0.002274   1.000    0.00431    0.00076
        116    47 -103.050213 -103.047720    0.002493   1.000    0.00425    0.00064
        117    52 -103.050242 -103.047430    0.002812   1.000    0.00417    0.00061
        118    53 -103.050227 -103.047610    0.002618   1.000    0.00413    0.00058
        119    47 -103.050231 -103.047855    0.002375   1.000    0.00411    0.00060
        120    47 -103.050230 -103.048195    0.002035   1.000    0.00411    0.00056
        121    53 -103.050187 -103.048287    0.001900   1.000    0.00410    0.00055
        122    47 -103.050166 -103.048192    0.001974   1.000    0.00409    0.00053
        123    53 -103.050139 -103.047976    0.002163   1.000    0.00407    0.00052
        124    53 -103.050133 -103.047824    0.002309   1.000    0.00404    0.00051
        125    53 -103.050129 -103.047762    0.002367   1.000    0.00401    0.00050
        126    53 -103.050119 -103.047817    0.002302   1.000    0.00397    0.00056
        127    47 -103.050077 -103.048266    0.001810   1.000    0.00394    0.00049
        128    47 -103.050072 -103.048274    0.001798   1.000    0.00393    0.00048
        129    53 -103.050047 -103.048325    0.001722   1.000    0.00392    0.00047
        130    53 -103.050035 -103.048216    0.001819   1.000    0.00391    0.00055
        131    47 -103.050047 -103.048241    0.001806   1.000    0.00392    0.00048
        132    47 -103.049914 -103.048131    0.001783   1.000    0.00391    0.00052
        133    47 -103.049911 -103.048161    0.001750   1.000    0.00390    0.00047
        134    53 -103.049881 -103.048141    0.001740   1.000    0.00389    0.00052
        135    47 -103.049767 -103.048180    0.001587   1.000    0.00396    0.00055
        136    47 -103.049807 -103.048359    0.001448   1.000    0.00390    0.00046
        137    47 -103.049750 -103.048419    0.001332   1.000    0.00392    0.00052
        138    47 -103.049841 -103.048439    0.001402   1.000    0.00378    0.00052
        139    47 -103.049896 -103.048544    0.001352   1.000    0.00378    0.00046
        140    47 -103.049766 -103.048411    0.001355   1.000    0.00379    0.00043
        141    47 -103.049773 -103.048142    0.001630   1.000    0.00375    0.00045
        142    47 -103.049651 -103.048124    0.001526   1.000    0.00371    0.00045
        143    47 -103.049672 -103.047968    0.001704   1.000    0.00370    0.00040
        144    47 -103.049983 -103.047777    0.002206   1.000    0.00362    0.00044
        145    47 -103.049763 -103.047960    0.001803   1.000    0.00358    0.00040
        146    47 -103.049884 -103.047664    0.002220   1.000    0.00357    0.00037
        147    53 -103.049792 -103.047695    0.002097   1.000    0.00355    0.00036
        148    47 -103.049830 -103.047587    0.002243   1.000    0.00354    0.00047
        149    42 -103.049802 -103.047775    0.002027   1.000    0.00350    0.00038
        150    47 -103.049692 -103.047975    0.001717   1.000    0.00332    0.00045
        151    47 -103.049719 -103.048172    0.001547   1.000    0.00335    0.00039
        152    47 -103.049683 -103.048240    0.001443   1.000    0.00332    0.00036
        153    48 -103.049679 -103.048195    0.001483   1.000    0.00331    0.00051
        154    42 -103.049719 -103.048436    0.001283   1.000    0.00331    0.00047
        155    42 -103.049720 -103.048647    0.001073   1.000    0.00334    0.00038
        156    47 -103.049693 -103.048583    0.001111   1.000    0.00333    0.00040
        157    47 -103.049691 -103.048523    0.001169   1.000    0.00333    0.00048
        158    46 -103.049706 -103.048614    0.001091   1.000    0.00331    0.00045
        159    47 -103.049703 -103.048647    0.001055   1.000    0.00330    0.00039
        160    47 -103.049708 -103.048571    0.001137   1.000    0.00330    0.00048
        161    47 -103.049715 -103.048528    0.001188   1.000    0.00330    0.00055
        162    46 -103.049727 -103.048734    0.000993   1.000    0.00331    0.00050
        163    46 -103.049728 -103.049008    0.000719   1.000    0.00334    0.00054
        164    41 -103.049741 -103.049176    0.000564   1.000    0.00341    0.00042
        165    47 -103.049706 -103.048965    0.000741   1.000    0.00344    0.00034
        166    47 -103.049585 -103.048478    0.001106   1.000    0.00315    0.00042
        167    47 -103.049616 -103.048046    0.001571   1.000    0.00322    0.00032
        168    47 -103.049566 -103.047592    0.001974   1.000    0.00311    0.00028
        169    54 -103.049465 -103.047256    0.002210   1.000    0.00284    0.00039
        170    47 -103.049472 -103.047151    0.002321   1.000    0.00283    0.00033
        171    47 -103.049475 -103.047173    0.002302   1.000    0.00279    0.00047
        172    42 -103.049494 -103.047427    0.002066   1.000    0.00281    0.00033
        173    46 -103.049486 -103.047647    0.001838   1.000    0.00283    0.00028
        174    45 -103.049494 -103.047845    0.001649   1.000    0.00285    0.00026
        175    47 -103.049492 -103.048018    0.001474   1.000    0.00286    0.00024
        176    47 -103.049480 -103.048128    0.001353   1.000    0.00284    0.00025
        177    47 -103.049456 -103.048233    0.001223   1.000    0.00281    0.00040
        178    42 -103.049425 -103.048484    0.000941   1.000    0.00276    0.00035
        179    46 -103.049382 -103.048511    0.000871   1.000    0.00276    0.00028
        180    47 -103.049369 -103.048393    0.000976   1.000    0.00278    0.00024
        181    47 -103.049362 -103.048131    0.001231   1.000    0.00282    0.00023
        182    49 -103.049364 -103.047811    0.001554   1.000    0.00285    0.00021
        183    49 -103.049366 -103.047493    0.001873   1.000    0.00285    0.00021
        184    47 -103.049368 -103.047245    0.002122   1.000    0.00283    0.00021
        185    47 -103.049252 -103.047080    0.002172   1.000    0.00250    0.00038
        186    46 -103.049296 -103.047152    0.002144   1.000    0.00254    0.00027
        187    47 -103.049251 -103.047186    0.002065   1.000    0.00246    0.00023
        188    49 -103.049269 -103.047243    0.002027   1.000    0.00248    0.00027
        189    47 -103.049278 -103.047399    0.001879   1.000    0.00247    0.00022
        190    47 -103.049264 -103.047453    0.001811   1.000    0.00249    0.00020
        191    49 -103.049257 -103.047495    0.001763   1.000    0.00247    0.00019
        192    48 -103.049249 -103.047565    0.001684   1.000    0.00247    0.00019
        193    49 -103.049243 -103.047661    0.001582   1.000    0.00246    0.00019
        194    49 -103.049233 -103.047750    0.001484   1.000    0.00246    0.00018
        195    49 -103.049224 -103.047800    0.001424   1.000    0.00246    0.00018
        196    49 -103.049215 -103.047795    0.001420   1.000    0.00247    0.00018
        197    48 -103.049208 -103.047738    0.001471   1.000    0.00247    0.00018
        198    49 -103.049201 -103.047646    0.001555   1.000    0.00247    0.00018
        199    49 -103.049195 -103.047543    0.001652   1.000    0.00247    0.00017

        ==> Orbital Optimization <==

            Jacobi Optimization did not converge.
            Total energy change: -2.730651e-02

        200    48 -103.076496 -101.726746    1.349750  14.301    0.00246    0.00017
        201    91 -103.089463 -100.237439    2.852024  14.301    0.02982    0.39771
        202    61 -103.100307 -101.607620    1.492688  14.301    0.03693    0.27481
        203    59 -103.100397 -103.263595    0.163198  14.301    0.03467    0.20197
        204    54 -103.096608 -104.482416    1.385808  14.301    0.02185    0.23793
        205    54 -103.090286 -104.926202    1.835916  14.301    0.00933    0.24384
        206    61 -103.085759 -104.598294    1.512534  14.301    0.01455    0.21221
        207    61 -103.084649 -103.794323    0.709673  14.301    0.02043    0.16082
        208    59 -103.087210 -102.916436    0.170773  14.301    0.01930    0.13329
        209    55 -103.089208 -102.370521    0.718687  14.301    0.01269    0.15205
        210    54 -103.098796 -102.478620    0.620176  14.301    0.00905    0.13453
        211    60 -103.097417 -102.726298    0.371120  14.301    0.01101    0.11135
        212    54 -103.101676 -103.020031    0.081646  14.301    0.01080    0.09317
        213    53 -103.100970 -103.282662    0.181692  14.301    0.01037    0.08184
        214    55 -103.101274 -103.454006    0.352732  14.301    0.00920    0.07983
        215    49 -103.099900 -103.552913    0.453013  14.301    0.00869    0.08019
        216    42 -103.101554 -103.581550    0.479996  14.301    0.00777    0.08452
        217    54 -103.100202 -103.623866    0.523664  14.301    0.00835    0.09024
        218    47 -103.095981 -103.636453    0.540473  14.301    0.00533    0.09827
        219    54 -103.094518 -103.724327    0.629809  14.301    0.00466    0.09537
        220    47 -103.092078 -103.736732    0.644654  14.301    0.00477    0.09250
        221    54 -103.090438 -103.700204    0.609766  14.301    0.00602    0.08701
        222    54 -103.088624 -103.618480    0.529856  14.301    0.00659    0.08441
        223    54 -103.087051 -103.541203    0.454151  14.301    0.00702    0.07417
        224    54 -103.085446 -103.432619    0.347173  14.301    0.00702    0.06372
        225    54 -103.084520 -103.333483    0.248963  14.301    0.00686    0.05452
        226    55 -103.084216 -103.234960    0.150745  14.301    0.00674    0.04522
        227    55 -103.084550 -103.126672    0.042122  14.301    0.00668    0.04187
        228    55 -103.085405 -103.017777    0.067628  14.301    0.00643    0.04372
        229    55 -103.086528 -102.917155    0.169373  14.301    0.00588    0.04768
        230    54 -103.087810 -102.836626    0.251184  14.301    0.00495    0.05177
        231    54 -103.089154 -102.788489    0.300665  14.301    0.00386    0.05469
        232    53 -103.090548 -102.775395    0.315153  14.301    0.00302    0.05523
        233    47 -103.091895 -102.789555    0.302340  14.301    0.00264    0.05322
        234    54 -103.093007 -102.827003    0.266004  14.301    0.00274    0.04933
        235    53 -103.094042 -102.884014    0.210027  14.301    0.00308    0.04352
        236    52 -103.094863 -102.945093    0.149769  14.301    0.00340    0.03642
        237    53 -103.095457 -103.007520    0.087937  14.301    0.00360    0.02945
        238    53 -103.095248 -103.071500    0.023747  14.301    0.00379    0.02555
        239    53 -103.094996 -103.144762    0.049766  14.301    0.00368    0.02300
        240    54 -103.094578 -103.204720    0.110142  14.301    0.00350    0.02460
        241    52 -103.093879 -103.257136    0.163257  14.301    0.00321    0.02862
        242    53 -103.092971 -103.297954    0.204983  14.301    0.00300    0.03280
        243    53 -103.092049 -103.328733    0.236684  14.301    0.00267    0.03573
        244    51 -103.090945 -103.343500    0.252556  14.301    0.00249    0.03740
        245    53 -103.090074 -103.346746    0.256672  14.301    0.00254    0.03745
        246    54 -103.089085 -103.333813    0.244728  14.301    0.00269    0.03647
        247    54 -103.088379 -103.314292    0.225913  14.301    0.00311    0.03358
        248    53 -103.087725 -103.275403    0.187677  14.301    0.00344    0.02940
        249    54 -103.087292 -103.232860    0.145567  14.301    0.00373    0.02421
        250    54 -103.086762 -103.183719    0.096957  14.301    0.00354    0.01969
        251    54 -103.086597 -103.136775    0.050178  14.301    0.00353    0.01585
        252    55 -103.086658 -103.088531    0.001873  14.301    0.00347    0.01461
        253    54 -103.086849 -103.044525    0.042324  14.301    0.00328    0.01712
        254    55 -103.086904 -103.012615    0.074289  14.301    0.00283    0.01977
        255    54 -103.087543 -102.985285    0.102258  14.301    0.00262    0.02180
        256    54 -103.087996 -102.964722    0.123274  14.301    0.00234    0.02362
        257    53 -103.088674 -102.954616    0.134057  14.301    0.00219    0.02408
        258    54 -103.089285 -102.951439    0.137846  14.301    0.00207    0.02408
        259    53 -103.089912 -102.957178    0.132735  14.301    0.00204    0.02215
        260    54 -103.090381 -102.969385    0.120996  14.301    0.00205    0.02000
        261    53 -103.090748 -102.993397    0.097351  14.301    0.00211    0.01718
        262    51 -103.090983 -103.018504    0.072479  14.301    0.00218    0.01441
        263    54 -103.091121 -103.047990    0.043132  14.301    0.00223    0.01149
        264    53 -103.091084 -103.075596    0.015488  14.301    0.00224    0.00998
        265    53 -103.091015 -103.106164    0.015149  14.301    0.00223    0.00965
        266    53 -103.090820 -103.131436    0.040616  14.301    0.00220    0.01072
        267    54 -103.090545 -103.155016    0.064472  14.301    0.00214    0.01249
        268    56 -103.090195 -103.172787    0.082592  14.301    0.00207    0.01431
        269    54 -103.089776 -103.185070    0.095293  14.301    0.00202    0.01578
        270    54 -103.089324 -103.191389    0.102065  14.301    0.00198    0.01704
        271    54 -103.088812 -103.195622    0.106810  14.301    0.00193    0.01759
        272    53 -103.087985 -103.196592    0.108606  14.301    0.00194    0.01760
        273    54 -103.087649 -103.192070    0.104421  14.301    0.00192    0.01659
        274    54 -103.087148 -103.180292    0.093144  14.301    0.00201    0.01502
        275    54 -103.086813 -103.164431    0.077618  14.301    0.00204    0.01296
        276    53 -103.086489 -103.145077    0.058588  14.301    0.00207    0.01076
        277    54 -103.086292 -103.124099    0.037807  14.301    0.00208    0.00880
        278    54 -103.086160 -103.103486    0.017327  14.301    0.00209    0.00794
        279    53 -103.086097 -103.085752    0.000345  14.301    0.00205    0.00712
        280    54 -103.086130 -103.067445    0.018685  14.301    0.00201    0.00731
        281    54 -103.086251 -103.050018    0.036233  14.301    0.00197    0.00823
        282    54 -103.086451 -103.033875    0.052577  14.301    0.00192    0.00959
        283    54 -103.086707 -103.021947    0.064761  14.301    0.00185    0.01112
        284    54 -103.086992 -103.013914    0.073078  14.301    0.00176    0.01168
        285    54 -103.087320 -103.008195    0.079124  14.301    0.00171    0.01201
        286    59 -103.087577 -103.005560    0.082016  14.301    0.00167    0.01211
        287    58 -103.087887 -103.008079    0.079808  14.301    0.00169    0.01166
        288    58 -103.088185 -103.013633    0.074553  14.301    0.00173    0.01090
        289    52 -103.088464 -103.021676    0.066787  14.301    0.00175    0.00985
        290    54 -103.088679 -103.032519    0.056160  14.301    0.00178    0.00862
        291    53 -103.088837 -103.045377    0.043460  14.301    0.00179    0.00736
        292    58 -103.088921 -103.059927    0.028994  14.301    0.00180    0.00628
        293    53 -103.088944 -103.075044    0.013900  14.301    0.00180    0.00568
        294    53 -103.088893 -103.090109    0.001216  14.301    0.00180    0.00686
        295    59 -103.088825 -103.106622    0.017797  14.301    0.00182    0.00721
        296    58 -103.088641 -103.120275    0.031634  14.301    0.00182    0.00778
        297    59 -103.088408 -103.130496    0.042088  14.301    0.00185    0.00849
        298    54 -103.088128 -103.135788    0.047660  14.301    0.00188    0.00902
        299    54 -103.087850 -103.138063    0.050213  14.301    0.00190    0.00930
        300    54 -103.087569 -103.136955    0.049386  14.301    0.00191    0.00929
        301    54 -103.087304 -103.133581    0.046277  14.301    0.00191    0.00900
        302    54 -103.087059 -103.128165    0.041106  14.301    0.00190    0.00847
        303    54 -103.086851 -103.121381    0.034531  14.301    0.00189    0.00775
        304    55 -103.086680 -103.113481    0.026801  14.301    0.00187    0.00691
        305    56 -103.086559 -103.104854    0.018295  14.301    0.00186    0.00605
        306    54 -103.086478 -103.095782    0.009304  14.301    0.00185    0.00529
        307    54 -103.086442 -103.086566    0.000124  14.301    0.00185    0.00479
        308    58 -103.086444 -103.077514    0.008930  14.301    0.00184    0.00464
        309    54 -103.086483 -103.068966    0.017517  14.301    0.00183    0.00505
        310    53 -103.086543 -103.062146    0.024397  14.301    0.00182    0.00541
        311    54 -103.086625 -103.055509    0.031117  14.301    0.00181    0.00599
        312    54 -103.086603 -103.050260    0.036343  14.301    0.00164    0.00729
        313    54 -103.086694 -103.049076    0.037618  14.301    0.00161    0.00762
        314    54 -103.086596 -103.046145    0.040451  14.301    0.00143    0.00835
        315    53 -103.086729 -103.047314    0.039415  14.301    0.00146    0.00845
        316    54 -103.086726 -103.046474    0.040252  14.301    0.00140    0.00833
        317    60 -103.086819 -103.048113    0.038706  14.301    0.00141    0.00796
        318    54 -103.086870 -103.049547    0.037323  14.301    0.00139    0.00738
        319    60 -103.086959 -103.052562    0.034397  14.301    0.00140    0.00669
        320    53 -103.087034 -103.056116    0.030918  14.301    0.00140    0.00597
        321    53 -103.087112 -103.060862    0.026250  14.301    0.00140    0.00537
        322    59 -103.087168 -103.066836    0.020332  14.301    0.00139    0.00541
        323    53 -103.087183 -103.075543    0.011639  14.301    0.00139    0.00491
        324    54 -103.087178 -103.081459    0.005719  14.301    0.00138    0.00488
        325    53 -103.087142 -103.088281    0.001139  14.301    0.00136    0.00526
        326    56 -103.087080 -103.094477    0.007397  14.301    0.00133    0.00557
        327    53 -103.086996 -103.101183    0.014187  14.301    0.00128    0.00593
        328    56 -103.086887 -103.107065    0.020177  14.301    0.00122    0.00718
        329    56 -103.086763 -103.115132    0.028369  14.301    0.00116    0.00728
        330    54 -103.086606 -103.119521    0.032915  14.301    0.00113    0.00759
        331    56 -103.086428 -103.124572    0.038144  14.301    0.00111    0.00831
        332    47 -103.086235 -103.129159    0.042924  14.301    0.00111    0.00858
        333    53 -103.086031 -103.130520    0.044489  14.301    0.00109    0.00894
        334    43 -103.085804 -103.131174    0.045371  14.301    0.00108    0.00918
        335    49 -103.085570 -103.130501    0.044931  14.301    0.00105    0.00995
        336    56 -103.085313 -103.131662    0.046349  14.301    0.00101    0.00976
        337    54 -103.085034 -103.130150    0.045116  14.301    0.00097    0.00971
        338    53 -103.084770 -103.129421    0.044652  14.301    0.00093    0.00940
        339    54 -103.084513 -103.126155    0.041642  14.301    0.00090    0.00892
        340    54 -103.084267 -103.121963    0.037696  14.301    0.00086    0.00824
        341    54 -103.084041 -103.115649    0.031608  14.301    0.00083    0.00742
        342    55 -103.083849 -103.108195    0.024345  14.301    0.00080    0.00648
        343    59 -103.083704 -103.099805    0.016101  14.301    0.00079    0.00541
        344    54 -103.083617 -103.091796    0.008179  14.301    0.00077    0.00434
        345    54 -103.083591 -103.083413    0.000178  14.301    0.00075    0.00354
        346    56 -103.083624 -103.074933    0.008691  14.301    0.00073    0.00324
        347    54 -103.083712 -103.066744    0.016969  14.301    0.00069    0.00360
        348    56 -103.083850 -103.059226    0.024624  14.301    0.00066    0.00435
        349    51 -103.084029 -103.052577    0.031451  14.301    0.00063    0.00515
        350    54 -103.084237 -103.046910    0.037327  14.301    0.00061    0.00582
        351    54 -103.084464 -103.042617    0.041848  14.301    0.00061    0.00629
        352    55 -103.084699 -103.039987    0.044712  14.301    0.00057    0.00717
        353    42 -103.084971 -103.041210    0.043761  14.301    0.00053    0.00716
        354    55 -103.085207 -103.043228    0.041980  14.301    0.00055    0.00652
        355    48 -103.085404 -103.046659    0.038745  14.301    0.00058    0.00573
        356    49 -103.085552 -103.051366    0.034186  14.301    0.00061    0.00509
        357    48 -103.085654 -103.057221    0.028433  14.301    0.00062    0.00449
        358    54 -103.085714 -103.063197    0.022517  14.301    0.00062    0.00400
        359    53 -103.085736 -103.069458    0.016278  14.301    0.00062    0.00366
        360    53 -103.085678 -103.075594    0.010084  14.301    0.00061    0.00350
        361    54 -103.085653 -103.082088    0.003565  14.301    0.00060    0.00325
        362    53 -103.085574 -103.087971    0.002397  14.301    0.00059    0.00313
        363    56 -103.085494 -103.092930    0.007436  14.301    0.00058    0.00316
        364    55 -103.085389 -103.097151    0.011763  14.301    0.00056    0.00326
        365    49 -103.085284 -103.100435    0.015151  14.301    0.00055    0.00337
        366    49 -103.085172 -103.103077    0.017905  14.301    0.00053    0.00347
        367    48 -103.085062 -103.105007    0.019946  14.301    0.00052    0.00358
        368    49 -103.084950 -103.106160    0.021209  14.301    0.00051    0.00371
        369    49 -103.084842 -103.106643    0.021800  14.301    0.00049    0.00385
        370    55 -103.084740 -103.106606    0.021865  14.301    0.00047    0.00398
        371    55 -103.084646 -103.106119    0.021472  14.301    0.00045    0.00408
        372    56 -103.084563 -103.105277    0.020714  14.301    0.00043    0.00412
        373    55 -103.084490 -103.104123    0.019633  14.301    0.00042    0.00409
        374    54 -103.084427 -103.102708    0.018281  14.301    0.00042    0.00396
        375    53 -103.084373 -103.101070    0.016697  14.301    0.00042    0.00374
        376    53 -103.084327 -103.099256    0.014929  14.301    0.00043    0.00344
        377    53 -103.084289 -103.097305    0.013016  14.301    0.00043    0.00307
        378    53 -103.084255 -103.095650    0.011396  14.301    0.00044    0.00264
        379    53 -103.084223 -103.093996    0.009774  14.301    0.00044    0.00218
        380    53 -103.084192 -103.091892    0.007700  14.301    0.00044    0.00172
        381    53 -103.084167 -103.089575    0.005408  14.301    0.00045    0.00133
        382    53 -103.084151 -103.086920    0.002770  14.301    0.00044    0.00111
        383    53 -103.084144 -103.084055    0.000089  14.301    0.00044    0.00114
        384    53 -103.084148 -103.081004    0.003144  14.301    0.00043    0.00135
        385    53 -103.084163 -103.077908    0.006254  14.301    0.00042    0.00163
        386    53 -103.084189 -103.074881    0.009308  14.301    0.00041    0.00191
        387    54 -103.084208 -103.072065    0.012144  14.301    0.00037    0.00219
        388    53 -103.084232 -103.069819    0.014412  14.301    0.00034    0.00243
        389    60 -103.084308 -103.068328    0.015980  14.301    0.00033    0.00259
        390    58 -103.084366 -103.067083    0.017282  14.301    0.00032    0.00271
        391    54 -103.084445 -103.066477    0.017968  14.301    0.00031    0.00277
        392    60 -103.084520 -103.066202    0.018318  14.301    0.00031    0.00277
        393    60 -103.084564 -103.066409    0.018156  14.301    0.00030    0.00281
        394    57 -103.084654 -103.067547    0.017107  14.301    0.00030    0.00266
        395    56 -103.084712 -103.068456    0.016256  14.301    0.00031    0.00248
        396    55 -103.084781 -103.070032    0.014749  14.301    0.00032    0.00226
        397    56 -103.084832 -103.071756    0.013076  14.301    0.00033    0.00199
        398    56 -103.084882 -103.073942    0.010939  14.301    0.00033    0.00169
        399    55 -103.084916 -103.076366    0.008550  14.301    0.00034    0.00141

        ==> Orbital Optimization <==

            Jacobi Optimization converged.
            Total energy change: -1.551738e-03

        400    56 -103.086492 -103.402435    0.315943   4.151    0.00034    0.00116
        401    79 -103.067477 -103.962555    0.895078   4.151    0.01579    0.11810
        402    53 -103.051683 -103.810876    0.759193   4.151    0.02092    0.09058
        403    47 -103.041804 -103.622248    0.580444   4.151    0.02255    0.06965
        404    42 -103.034026 -103.434953    0.400927   4.151    0.02090    0.06254
        405    42 -103.033504 -103.312995    0.279490   4.151    0.01977    0.05240
        406    42 -103.034782 -103.155040    0.120258   4.151    0.01875    0.04850
        407    38 -103.040069 -103.043136    0.003067   4.151    0.01770    0.04852
        408    37 -103.046319 -102.948794    0.097525   4.151    0.01637    0.05049
        409    37 -103.053952 -102.887209    0.166744   4.151    0.01475    0.05376
        410    41 -103.059568 -102.847925    0.211643   4.151    0.01281    0.05403
        411    42 -103.062450 -102.859406    0.203044   4.151    0.01279    0.04947
        412    47 -103.066283 -102.888288    0.177996   4.151    0.01160    0.04587
        413    42 -103.070438 -102.888952    0.181487   4.151    0.01073    0.04145
        414    37 -103.073619 -102.866911    0.206708   4.151    0.00980    0.03691
        415    41 -103.076814 -102.845540    0.231274   4.151    0.00706    0.03975
        416    42 -103.081655 -102.826161    0.255495   4.151    0.00445    0.04232
        417    47 -103.086610 -102.808786    0.277825   4.151    0.00384    0.04191
        418    38 -103.091150 -102.803115    0.288035   4.151    0.00423    0.04002
        419    43 -103.094066 -102.816634    0.277431   4.151    0.00477    0.03600
        420    43 -103.097679 -102.851574    0.246105   4.151    0.00514    0.03278
        421    47 -103.101208 -102.888291    0.212917   4.151    0.00580    0.02813
        422    47 -103.103006 -102.927694    0.175312   4.151    0.00685    0.02221
        423    47 -103.103366 -102.979261    0.124106   4.151    0.00817    0.01635
        424    48 -103.103333 -103.038934    0.064398   4.151    0.00887    0.01029
        425    46 -103.102397 -103.094038    0.008359   4.151    0.00878    0.00786
        426    46 -103.101420 -103.143831    0.042410   4.151    0.00774    0.01081
        427    41 -103.100094 -103.188065    0.087971   4.151    0.00632    0.01479
        428    41 -103.098533 -103.215868    0.117336   4.151    0.00506    0.01848
        429    42 -103.096696 -103.234274    0.137578   4.151    0.00422    0.02122
        430    42 -103.094648 -103.244787    0.150139   4.151    0.00405    0.02254
        431    36 -103.092443 -103.246047    0.153604   4.151    0.00446    0.02259
        432    41 -103.090327 -103.237628    0.147301   4.151    0.00501    0.02163
        433    41 -103.087848 -103.222531    0.134683   4.151    0.00423    0.02009
        434    42 -103.086014 -103.204655    0.118641   4.151    0.00422    0.01781
        435    42 -103.084758 -103.185061    0.100303   4.151    0.00465    0.01542
        436    47 -103.083874 -103.164671    0.080797   4.151    0.00509    0.01228
        437    47 -103.083125 -103.139570    0.056445   4.151    0.00509    0.01006
        438    47 -103.081191 -103.119986    0.038796   4.151    0.00373    0.00962
        439    47 -103.081788 -103.105733    0.023945   4.151    0.00366    0.00790
        440    49 -103.081803 -103.084419    0.002616   4.151    0.00365    0.00766
        441    47 -103.082411 -103.066527    0.015883   4.151    0.00336    0.00867
        442    41 -103.082810 -103.051755    0.031055   4.151    0.00319    0.00926
        443    47 -103.082984 -103.039975    0.043009   4.151    0.00211    0.01106
        444    42 -103.083920 -103.036479    0.047441   4.151    0.00199    0.01001
        445    42 -103.084703 -103.029773    0.054930   4.151    0.00181    0.00961
        446    41 -103.085621 -103.026294    0.059328   4.151    0.00165    0.00959
        447    42 -103.086027 -103.023380    0.062647   4.151    0.00116    0.00965
        448    42 -103.087062 -103.024593    0.062470   4.151    0.00112    0.00922
        449    47 -103.087839 -103.025666    0.062173   4.151    0.00125    0.00868
        450    42 -103.088761 -103.029307    0.059454   4.151    0.00136    0.00797
        451    41 -103.089527 -103.034062    0.055465   4.151    0.00157    0.00701
        452    41 -103.090134 -103.041438    0.048696   4.151    0.00172    0.00592
        453    41 -103.090642 -103.050578    0.040064   4.151    0.00181    0.00498
        454    38 -103.091035 -103.061791    0.029245   4.151    0.00182    0.00443
        455    42 -103.091236 -103.073815    0.017421   4.151    0.00181    0.00388
        456    46 -103.091086 -103.083434    0.007651   4.151    0.00188    0.00334
        457    46 -103.090805 -103.092971    0.002166   4.151    0.00190    0.00305
        458    41 -103.090445 -103.103474    0.013028   4.151    0.00181    0.00328
        459    42 -103.089966 -103.113054    0.023089   4.151    0.00165    0.00412
        460    42 -103.089407 -103.119971    0.030564   4.151    0.00148    0.00445
        461    38 -103.088773 -103.123618    0.034845   4.151    0.00132    0.00478
        462    42 -103.088120 -103.125274    0.037154   4.151    0.00120    0.00504
        463    39 -103.087485 -103.125332    0.037846   4.151    0.00111    0.00518
        464    39 -103.086931 -103.124739    0.037808   4.151    0.00103    0.00522
        465    40 -103.086425 -103.122735    0.036310   4.151    0.00099    0.00515
        466    42 -103.085981 -103.119830    0.033849   4.151    0.00096    0.00499
        467    42 -103.085615 -103.116394    0.030780   4.151    0.00095    0.00476
        468    42 -103.085329 -103.112545    0.027216   4.151    0.00096    0.00449
        469    47 -103.085065 -103.108497    0.023432   4.151    0.00088    0.00422
        470    47 -103.084824 -103.105111    0.020286   4.151    0.00083    0.00400
        471    47 -103.084709 -103.102432    0.017723   4.151    0.00088    0.00373
        472    47 -103.084607 -103.099260    0.014653   4.151    0.00093    0.00344
        473    47 -103.084518 -103.096358    0.011840   4.151    0.00103    0.00307
        474    47 -103.084470 -103.093417    0.008947   4.151    0.00115    0.00255
        475    42 -103.084496 -103.090724    0.006228   4.151    0.00122    0.00192
        476    42 -103.084498 -103.087708    0.003210   4.151    0.00125    0.00151
        477    42 -103.084573 -103.084855    0.000281   4.151    0.00114    0.00142
        478    47 -103.084632 -103.081696    0.002936   4.151    0.00103    0.00169
        479    42 -103.084649 -103.078686    0.005963   4.151    0.00092    0.00222
        480    42 -103.084905 -103.076106    0.008799   4.151    0.00074    0.00247
        481    42 -103.085083 -103.073329    0.011754   4.151    0.00064    0.00268
        482    41 -103.085350 -103.070978    0.014372   4.151    0.00057    0.00280
        483    42 -103.085596 -103.068835    0.016761   4.151    0.00054    0.00285
        484    42 -103.085879 -103.067333    0.018546   4.151    0.00054    0.00287
        485    47 -103.086003 -103.066321    0.019682   4.151    0.00040    0.00293
        486    42 -103.086277 -103.066157    0.020120   4.151    0.00039    0.00292
        487    47 -103.086521 -103.066287    0.020234   4.151    0.00043    0.00287
        488    42 -103.086783 -103.066909    0.019874   4.151    0.00049    0.00274
        489    42 -103.087032 -103.068077    0.018955   4.151    0.00057    0.00253
        490    42 -103.087274 -103.069768    0.017506   4.151    0.00063    0.00225
        491    42 -103.087488 -103.071962    0.015527   4.151    0.00067    0.00194
        492    42 -103.087667 -103.074579    0.013088   4.151    0.00070    0.00162
        493    42 -103.087796 -103.077513    0.010283   4.151    0.00071    0.00131
        494    42 -103.087872 -103.080628    0.007244   4.151    0.00072    0.00105
        495    42 -103.087891 -103.083786    0.004106   4.151    0.00072    0.00087
        496    42 -103.087858 -103.086855    0.001002   4.151    0.00070    0.00082
        497    42 -103.087776 -103.089730    0.001954   4.151    0.00067    0.00095
        498    42 -103.087653 -103.092488    0.004835   4.151    0.00063    0.00125
        499    42 -103.087487 -103.095078    0.007591   4.151    0.00058    0.00142
        500    42 -103.087282 -103.096703    0.009420   4.151    0.00053    0.00160
        501    42 -103.087064 -103.098137    0.011074   4.151    0.00046    0.00185
        502    42 -103.086857 -103.099434    0.012577   4.151    0.00037    0.00194
        503    42 -103.086627 -103.099741    0.013114   4.151    0.00032    0.00201
        504    42 -103.086415 -103.099988    0.013573   4.151    0.00030    0.00203
        505    47 -103.086212 -103.099703    0.013490   4.151    0.00031    0.00199
        506    47 -103.086029 -103.099149    0.013120   4.151    0.00034    0.00191
        507    47 -103.085861 -103.098198    0.012337   4.151    0.00037    0.00179
        508    47 -103.085715 -103.096981    0.011266   4.151    0.00039    0.00165
        509    47 -103.085598 -103.095513    0.009915   4.151    0.00041    0.00151
        510    50 -103.085511 -103.093894    0.008383   4.151    0.00041    0.00135
        511    47 -103.085454 -103.092184    0.006730   4.151    0.00042    0.00119
        512    47 -103.085425 -103.090462    0.005038   4.151    0.00043    0.00103
        513    47 -103.085420 -103.088811    0.003391   4.151    0.00044    0.00089
        514    47 -103.085437 -103.087262    0.001824   4.151    0.00045    0.00078
        515    47 -103.085472 -103.085804    0.000333   4.151    0.00047    0.00071
        516    47 -103.085521 -103.084463    0.001057   4.151    0.00048    0.00069
        517    47 -103.085581 -103.083333    0.002248   4.151    0.00050    0.00071
        518    42 -103.085648 -103.082318    0.003331   4.151    0.00050    0.00077
        519    42 -103.085720 -103.081376    0.004345   4.151    0.00049    0.00089
        520    42 -103.085798 -103.080634    0.005164   4.151    0.00045    0.00103
        521    42 -103.085883 -103.079937    0.005945   4.151    0.00040    0.00116
        522    43 -103.085975 -103.079345    0.006630   4.151    0.00035    0.00126
        523    47 -103.086077 -103.078871    0.007206   4.151    0.00030    0.00131
        524    47 -103.086185 -103.078552    0.007633   4.151    0.00028    0.00132
        525    47 -103.086297 -103.078420    0.007877   4.151    0.00027    0.00130
        526    42 -103.086409 -103.078498    0.007911   4.151    0.00027    0.00124
        527    42 -103.086516 -103.078805    0.007711   4.151    0.00028    0.00116
        528    42 -103.086616 -103.079361    0.007255   4.151    0.00029    0.00115
        529    49 -103.086701 -103.080360    0.006341   4.151    0.00031    0.00101
        530    42 -103.086762 -103.081009    0.005752   4.151    0.00032    0.00088
        531    42 -103.086810 -103.081988    0.004822   4.151    0.00033    0.00075
        532    42 -103.086846 -103.082876    0.003969   4.151    0.00033    0.00061
        533    42 -103.086871 -103.083886    0.002985   4.151    0.00034    0.00047
        534    42 -103.086882 -103.084861    0.002021   4.151    0.00034    0.00036
        535    42 -103.086879 -103.085872    0.001007   4.151    0.00034    0.00029
        536    47 -103.086860 -103.086851    0.000008   4.151    0.00033    0.00030
        537    42 -103.086825 -103.087796    0.000971   4.151    0.00032    0.00037
        538    42 -103.086778 -103.088668    0.001890   4.151    0.00031    0.00047
        539    42 -103.086720 -103.089434    0.002714   4.151    0.00029    0.00056
        540    43 -103.086654 -103.090074    0.003420   4.151    0.00028    0.00065
        541    42 -103.086584 -103.090570    0.003986   4.151    0.00027    0.00072
        542    47 -103.086511 -103.090929    0.004418   4.151    0.00026    0.00078
        543    47 -103.086438 -103.091141    0.004703   4.151    0.00025    0.00082
        544    46 -103.086365 -103.091233    0.004867   4.151    0.00024    0.00084
        545    47 -103.086296 -103.091204    0.004908   4.151    0.00023    0.00084
        546    48 -103.086230 -103.091074    0.004844   4.151    0.00023    0.00083
        547    47 -103.086169 -103.090845    0.004676   4.151    0.00024    0.00079
        548    48 -103.086113 -103.090530    0.004417   4.151    0.00024    0.00074
        549    47 -103.086064 -103.090132    0.004069   4.151    0.00025    0.00068
        550    47 -103.086022 -103.089664    0.003643   4.151    0.00026    0.00061
        551    47 -103.085988 -103.089135    0.003147   4.151    0.00027    0.00052
        552    47 -103.085962 -103.088558    0.002596   4.151    0.00028    0.00043
        553    47 -103.085945 -103.087948    0.002003   4.151    0.00029    0.00035
        554    47 -103.085936 -103.087321    0.001384   4.151    0.00030    0.00027
        555    47 -103.085936 -103.086690    0.000754   4.151    0.00030    0.00021
        556    47 -103.085945 -103.086071    0.000126   4.151    0.00029    0.00020
        557    47 -103.085960 -103.085474    0.000486   4.151    0.00029    0.00024
        558    47 -103.085983 -103.084912    0.001071   4.151    0.00028    0.00030
        559    47 -103.086012 -103.084393    0.001619   4.151    0.00027    0.00036
        560    47 -103.086047 -103.083928    0.002119   4.151    0.00026    0.00043
        561    47 -103.086087 -103.083525    0.002561   4.151    0.00025    0.00048
        562    47 -103.086130 -103.083193    0.002937   4.151    0.00024    0.00052
        563    47 -103.086177 -103.082937    0.003239   4.151    0.00023    0.00056
        564    47 -103.086225 -103.082764    0.003461   4.151    0.00022    0.00057
        565    47 -103.086274 -103.082675    0.003599   4.151    0.00022    0.00058
        566    47 -103.086322 -103.082672    0.003650   4.151    0.00021    0.00057
        567    47 -103.086369 -103.082753    0.003616   4.151    0.00021    0.00055
        568    47 -103.086413 -103.082914    0.003499   4.151    0.00021    0.00052
        569    47 -103.086453 -103.083148    0.003306   4.151    0.00022    0.00048
        570    47 -103.086489 -103.083448    0.003041   4.151    0.00022    0.00044
        571    47 -103.086519 -103.083805    0.002714   4.151    0.00022    0.00038
        572    47 -103.086542 -103.084208    0.002335   4.151    0.00023    0.00032
        573    47 -103.086560 -103.084646    0.001914   4.151    0.00023    0.00026
        574    47 -103.086570 -103.085107    0.001463   4.151    0.00023    0.00021
        575    47 -103.086574 -103.085580    0.000994   4.151    0.00023    0.00016
        576    48 -103.086571 -103.086052    0.000519   4.151    0.00023    0.00015
        577    53 -103.086562 -103.086512    0.000050   4.151    0.00023    0.00016
        578    48 -103.086547 -103.086945    0.000398   4.151    0.00023    0.00020
        579    47 -103.086526 -103.087349    0.000823   4.151    0.00022    0.00024
        580    47 -103.086501 -103.087707    0.001206   4.151    0.00022    0.00028
        581    47 -103.086473 -103.088017    0.001544   4.151    0.00021    0.00032
        582    47 -103.086441 -103.088269    0.001828   4.151    0.00021    0.00035
        583    48 -103.086407 -103.088461    0.002054   4.151    0.00021    0.00038
        584    47 -103.086372 -103.088589    0.002217   4.151    0.00020    0.00039
        585    48 -103.086337 -103.088655    0.002318   4.151    0.00020    0.00040
        586    48 -103.086303 -103.088656    0.002354   4.151    0.00020    0.00040
        587    49 -103.086270 -103.088598    0.002329   4.151    0.00020    0.00039
        588    49 -103.086239 -103.088483    0.002244   4.151    0.00021    0.00037
        589    49 -103.086211 -103.088316    0.002105   4.151    0.00021    0.00034
        590    52 -103.086186 -103.088103    0.001916   4.151    0.00021    0.00031
        591    47 -103.086165 -103.087852    0.001687   4.151    0.00021    0.00028
        592    47 -103.086149 -103.087570    0.001421   4.151    0.00022    0.00024
        593    47 -103.086136 -103.087266    0.001130   4.151    0.00022    0.00020
        594    48 -103.086129 -103.086948    0.000819   4.151    0.00022    0.00017
        595    52 -103.086127 -103.086624    0.000497   4.151    0.00022    0.00014
        596    53 -103.086128 -103.086305    0.000177   4.151    0.00022    0.00013
        597    52 -103.086135 -103.085994    0.000141   4.151    0.00022    0.00013
        598    56 -103.086144 -103.085703    0.000441   4.151    0.00021    0.00015
        599    56 -103.086158 -103.085435    0.000723   4.151    0.00021    0.00017

        ==> Orbital Optimization <==

            Jacobi Optimization converged.
            Total energy change: -8.082563e-05

        600    52 -103.086255 -103.334476    0.248221   4.315    0.00021    0.00020
        601    79 -103.082028 -103.336869    0.254841   4.315    0.00879    0.04306
        602    54 -103.078113 -103.279170    0.201058   4.315    0.01072    0.02950
        603    47 -103.075023 -103.214764    0.139741   4.315    0.00932    0.02421
        604    41 -103.073348 -103.156566    0.083218   4.315    0.00774    0.02028
        605    38 -103.072993 -103.113603    0.040610   4.315    0.00711    0.01653
        606    41 -103.073709 -103.083807    0.010098   4.315    0.00672    0.01450
        607    38 -103.075139 -103.062809    0.012331   4.315    0.00605    0.01570
        608    41 -103.076916 -103.043735    0.033182   4.315    0.00530    0.01792
        609    40 -103.077954 -103.026687    0.051267   4.315    0.00479    0.01898
        610    42 -103.079540 -103.020236    0.059304   4.315    0.00442    0.01845
        611    42 -103.081044 -103.014042    0.067002   4.315    0.00410    0.01840
        612    40 -103.082801 -103.012254    0.070547   4.315    0.00346    0.01816
        613    41 -103.084443 -103.010384    0.074060   4.315    0.00310    0.01720
        614    42 -103.085931 -103.010792    0.075139   4.315    0.00330    0.01538
        615    41 -103.087209 -103.014630    0.072579   4.315    0.00358    0.01275
        616    38 -103.088209 -103.021562    0.066647   4.315    0.00334    0.01089
        617    38 -103.088621 -103.027458    0.061163   4.315    0.00300    0.01115
        618    42 -103.089565 -103.032777    0.056788   4.315    0.00240    0.01119
        619    46 -103.090157 -103.035528    0.054630   4.315    0.00237    0.01098
        620    42 -103.090669 -103.042382    0.048287   4.315    0.00201    0.01086
        621    45 -103.090683 -103.056930    0.033753   4.315    0.00207    0.01002
        622    41 -103.090940 -103.064929    0.026012   4.315    0.00214    0.00854
        623    42 -103.090855 -103.072104    0.018752   4.315    0.00222    0.00757
        624    43 -103.090210 -103.079194    0.011016   4.315    0.00205    0.00628
        625    47 -103.089684 -103.084193    0.005491   4.315    0.00199    0.00480
        626    47 -103.089417 -103.092838    0.003421   4.315    0.00199    0.00379
        627    42 -103.089235 -103.099052    0.009818   4.315    0.00180    0.00418
        628    41 -103.089018 -103.105392    0.016374   4.315    0.00162    0.00491
        629    42 -103.088700 -103.110541    0.021841   4.315    0.00149    0.00489
        630    42 -103.088372 -103.112640    0.024268   4.315    0.00136    0.00506
        631    47 -103.088006 -103.114506    0.026500   4.315    0.00126    0.00530
        632    41 -103.087653 -103.115712    0.028059   4.315    0.00115    0.00552
        633    47 -103.087308 -103.117179    0.029871   4.315    0.00102    0.00561
        634    43 -103.086959 -103.117833    0.030874   4.315    0.00074    0.00566
        635    47 -103.086615 -103.118246    0.031631   4.315    0.00067    0.00556
        636    47 -103.086395 -103.117801    0.031407   4.315    0.00070    0.00524
        637    47 -103.086098 -103.115133    0.029035   4.315    0.00071    0.00498
        638    41 -103.085878 -103.113690    0.027813   4.315    0.00075    0.00467
        639    42 -103.085587 -103.111454    0.025867   4.315    0.00079    0.00438
        640    42 -103.085284 -103.109661    0.024377   4.315    0.00094    0.00406
        641    42 -103.084999 -103.107833    0.022833   4.315    0.00109    0.00365
        642    39 -103.084742 -103.105254    0.020512   4.315    0.00121    0.00317
        643    38 -103.084521 -103.101937    0.017416   4.315    0.00127    0.00262
        644    37 -103.084351 -103.097903    0.013551   4.315    0.00126    0.00214
        645    37 -103.084245 -103.093181    0.008936   4.315    0.00120    0.00188
        646    41 -103.084210 -103.088237    0.004027   4.315    0.00109    0.00187
        647    42 -103.084249 -103.083597    0.000652   4.315    0.00098    0.00190
        648    45 -103.084376 -103.078877    0.005499   4.315    0.00087    0.00198
        649    47 -103.084569 -103.074727    0.009842   4.315    0.00078    0.00210
        650    47 -103.084823 -103.071110    0.013713   4.315    0.00071    0.00230
        651    47 -103.085114 -103.068158    0.016956   4.315    0.00063    0.00258
        652    47 -103.085428 -103.065769    0.019660   4.315    0.00055    0.00286
        653    47 -103.085757 -103.064049    0.021708   4.315    0.00047    0.00308
        654    47 -103.086091 -103.062974    0.023117   4.315    0.00042    0.00321
        655    47 -103.086429 -103.062779    0.023650   4.315    0.00040    0.00325
        656    49 -103.086687 -103.063175    0.023512   4.315    0.00041    0.00319
        657    43 -103.086958 -103.064376    0.022582   4.315    0.00046    0.00305
        658    43 -103.087208 -103.066178    0.021030   4.315    0.00052    0.00284
        659    42 -103.087424 -103.068421    0.019003   4.315    0.00056    0.00261
        660    41 -103.087605 -103.071214    0.016390   4.315    0.00059    0.00241
        661    42 -103.087732 -103.074493    0.013239   4.315    0.00061    0.00216
        662    41 -103.087809 -103.077463    0.010346   4.315    0.00061    0.00193
        663    42 -103.087837 -103.080634    0.007203   4.315    0.00061    0.00171
        664    42 -103.087824 -103.083564    0.004261   4.315    0.00061    0.00152
        665    42 -103.087769 -103.086396    0.001373   4.315    0.00061    0.00140
        666    42 -103.087672 -103.088994    0.001322   4.315    0.00060    0.00133
        667    42 -103.087554 -103.091167    0.003614   4.315    0.00059    0.00134
        668    42 -103.087412 -103.093008    0.005596   4.315    0.00058    0.00140
        669    42 -103.087260 -103.094477    0.007217   4.315    0.00058    0.00148
        670    42 -103.087102 -103.095608    0.008506   4.315    0.00057    0.00157
        671    42 -103.086948 -103.096426    0.009479   4.315    0.00055    0.00165
        672    42 -103.086798 -103.096970    0.010172   4.315    0.00054    0.00172
        673    42 -103.086657 -103.097279    0.010621   4.315    0.00052    0.00177
        674    42 -103.086526 -103.097385    0.010860   4.315    0.00049    0.00181
        675    42 -103.086404 -103.097312    0.010908   4.315    0.00046    0.00184
        676    42 -103.086293 -103.097070    0.010777   4.315    0.00044    0.00187
        677    42 -103.086193 -103.096665    0.010473   4.315    0.00041    0.00189
        678    42 -103.086104 -103.096098    0.009994   4.315    0.00039    0.00190
        679    42 -103.086027 -103.095371    0.009344   4.315    0.00039    0.00189
        680    42 -103.085962 -103.094493    0.008531   4.315    0.00040    0.00185
        681    42 -103.085911 -103.093482    0.007571   4.315    0.00043    0.00178
        682    42 -103.085873 -103.092359    0.006486   4.315    0.00046    0.00167
        683    47 -103.085849 -103.091156    0.005307   4.315    0.00049    0.00153
        684    42 -103.085838 -103.089899    0.004061   4.315    0.00052    0.00136
        685    46 -103.085841 -103.088642    0.002801   4.315    0.00054    0.00118
        686    42 -103.085852 -103.087464    0.001611   4.315    0.00055    0.00098
        687    47 -103.085868 -103.086408    0.000540   4.315    0.00054    0.00079
        688    47 -103.085887 -103.085386    0.000500   4.315    0.00052    0.00069
        689    47 -103.085911 -103.084397    0.001514   4.315    0.00049    0.00071
        690    47 -103.085943 -103.083469    0.002474   4.315    0.00044    0.00080
        691    47 -103.085982 -103.082622    0.003361   4.315    0.00040    0.00090
        692    47 -103.086029 -103.081879    0.004150   4.315    0.00036    0.00098
        693    47 -103.086084 -103.081262    0.004822   4.315    0.00033    0.00105
        694    47 -103.086144 -103.080821    0.005323   4.315    0.00030    0.00117
        695    47 -103.086202 -103.080775    0.005428   4.315    0.00028    0.00120
        696    48 -103.086259 -103.080441    0.005818   4.315    0.00026    0.00122
        697    47 -103.086316 -103.080363    0.005953   4.315    0.00024    0.00123
        698    47 -103.086376 -103.080231    0.006145   4.315    0.00023    0.00123
        699    47 -103.086440 -103.080235    0.006205   4.315    0.00023    0.00120
        700    42 -103.086506 -103.080263    0.006243   4.315    0.00024    0.00116
        701    42 -103.086573 -103.080412    0.006161   4.315    0.00025    0.00111
        702    41 -103.086639 -103.080642    0.005997   4.315    0.00026    0.00104
        703    47 -103.086698 -103.081084    0.005614   4.315    0.00027    0.00097
        704    47 -103.086749 -103.081662    0.005087   4.315    0.00028    0.00088
        705    42 -103.086797 -103.082252    0.004545   4.315    0.00029    0.00077
        706    47 -103.086836 -103.082999    0.003837   4.315    0.00029    0.00066
        707    47 -103.086866 -103.083782    0.003085   4.315    0.00029    0.00054
        708    47 -103.086886 -103.084666    0.002220   4.315    0.00029    0.00044
        709    47 -103.086895 -103.085582    0.001312   4.315    0.00028    0.00038
        710    47 -103.086891 -103.086534    0.000357   4.315    0.00027    0.00038
        711    47 -103.086873 -103.087476    0.000603   4.315    0.00027    0.00041
        712    47 -103.086843 -103.088386    0.001543   4.315    0.00026    0.00047
        713    47 -103.086800 -103.089224    0.002424   4.315    0.00026    0.00053
        714    47 -103.086747 -103.089960    0.003213   4.315    0.00025    0.00060
        715    47 -103.086686 -103.090567    0.003881   4.315    0.00025    0.00066
        716    47 -103.086619 -103.091026    0.004407   4.315    0.00024    0.00071
        717    48 -103.086550 -103.091327    0.004777   4.315    0.00023    0.00074
        718    48 -103.086481 -103.091468    0.004987   4.315    0.00023    0.00077
        719    49 -103.086415 -103.091457    0.005042   4.315    0.00023    0.00078
        720    49 -103.086354 -103.091303    0.004949   4.315    0.00023    0.00078
        721    48 -103.086299 -103.091026    0.004727   4.315    0.00023    0.00077
        722    49 -103.086252 -103.090643    0.004391   4.315    0.00023    0.00075
        723    48 -103.086213 -103.090175    0.003963   4.315    0.00023    0.00072
        724    52 -103.086182 -103.089642    0.003460   4.315    0.00023    0.00068
        725    48 -103.086160 -103.089067    0.002907   4.315    0.00024    0.00064
        726    48 -103.086145 -103.088462    0.002317   4.315    0.00025    0.00058
        727    48 -103.086139 -103.087852    0.001713   4.315    0.00025    0.00052
        728    49 -103.086140 -103.087247    0.001108   4.315    0.00026    0.00045
        729    47 -103.086147 -103.086664    0.000517   4.315    0.00026    0.00038
        730    47 -103.086159 -103.086114    0.000045   4.315    0.00026    0.00032
        731    47 -103.086176 -103.085606    0.000570   4.315    0.00026    0.00028
        732    47 -103.086197 -103.085149    0.001047   4.315    0.00026    0.00026
        733    47 -103.086221 -103.084749    0.001471   4.315    0.00025    0.00028
        734    49 -103.086247 -103.084410    0.001837   4.315    0.00024    0.00031
        735    48 -103.086275 -103.084132    0.002143   4.315    0.00023    0.00036
        736    47 -103.086303 -103.083917    0.002387   4.315    0.00022    0.00041
        737    49 -103.086332 -103.083762    0.002569   4.315    0.00021    0.00046
        738    47 -103.086360 -103.083664    0.002696   4.315    0.00020    0.00050
        739    47 -103.086387 -103.083622    0.002765   4.315    0.00019    0.00054
        740    47 -103.086413 -103.083629    0.002784   4.315    0.00018    0.00056
        741    47 -103.086438 -103.083682    0.002756   4.315    0.00018    0.00058
        742    53 -103.086461 -103.083776    0.002685   4.315    0.00017    0.00058
        743    48 -103.086482 -103.083907    0.002575   4.315    0.00017    0.00058
        744    48 -103.086501 -103.084071    0.002431   4.315    0.00018    0.00056
        745    48 -103.086518 -103.084263    0.002256   4.315    0.00018    0.00054
        746    48 -103.086534 -103.084478    0.002055   4.315    0.00019    0.00050
        747    48 -103.086547 -103.084714    0.001832   4.315    0.00020    0.00046
        748    49 -103.086557 -103.084966    0.001592   4.315    0.00020    0.00040
        749    49 -103.086566 -103.085229    0.001337   4.315    0.00021    0.00035
        750    48 -103.086572 -103.085499    0.001073   4.315    0.00021    0.00029
        751    49 -103.086575 -103.085772    0.000803   4.315    0.00021    0.00023
        752    47 -103.086576 -103.086045    0.000532   4.315    0.00022    0.00018
        753    49 -103.086575 -103.086312    0.000264   4.315    0.00022    0.00015
        754    48 -103.086572 -103.086572    0.000000   4.315    0.00021    0.00015
        755    49 -103.086566 -103.086819    0.000253   4.315    0.00021    0.00018
        756    47 -103.086557 -103.087053    0.000495   4.315    0.00021    0.00022
        757    47 -103.086547 -103.087268    0.000721   4.315    0.00020    0.00027
        758    47 -103.086535 -103.087465    0.000930   4.315    0.00020    0.00031
        759    49 -103.086521 -103.087640    0.001119   4.315    0.00019    0.00035
        760    48 -103.086506 -103.087790    0.001285   4.315    0.00019    0.00038
        761    48 -103.086489 -103.087914    0.001426   4.315    0.00019    0.00040
        762    48 -103.086470 -103.088009    0.001539   4.315    0.00018    0.00042
        763    48 -103.086451 -103.088073    0.001622   4.315    0.00018    0.00043
        764    52 -103.086432 -103.088104    0.001672   4.315    0.00018    0.00042
        765    48 -103.086412 -103.088101    0.001689   4.315    0.00018    0.00041
        766    48 -103.086392 -103.088061    0.001668   4.315    0.00018    0.00039
        767    48 -103.086373 -103.087985    0.001612   4.315    0.00018    0.00037
        768    51 -103.086356 -103.087872    0.001516   4.315    0.00018    0.00034
        769    48 -103.086339 -103.087727    0.001388   4.315    0.00018    0.00030
        770    48 -103.086326 -103.087548    0.001222   4.315    0.00018    0.00025
        771    48 -103.086314 -103.087343    0.001029   4.315    0.00019    0.00021
        772    48 -103.086305 -103.087113    0.000809   4.315    0.00019    0.00016
        773    48 -103.086299 -103.086868    0.000569   4.315    0.00019    0.00012
        774    52 -103.086296 -103.086611    0.000315   4.315    0.00019    0.00010
        775    52 -103.086296 -103.086352    0.000056   4.315    0.00019    0.00010
        776    59 -103.086299 -103.086096    0.000204   4.315    0.00018    0.00012
        777    52 -103.086305 -103.085852    0.000453   4.315    0.00018    0.00016
        778    52 -103.086314 -103.085623    0.000691   4.315    0.00018    0.00019
        779    48 -103.086325 -103.085419    0.000906   4.315    0.00018    0.00023
        780    52 -103.086338 -103.085240    0.001098   4.315    0.00017    0.00026
        781    52 -103.086352 -103.085093    0.001259   4.315    0.00017    0.00028
        782    52 -103.086367 -103.084977    0.001390   4.315    0.00017    0.00030
        783    52 -103.086383 -103.084896    0.001487   4.315    0.00017    0.00031
        784    48 -103.086400 -103.084848    0.001551   4.315    0.00017    0.00032
        785    48 -103.086415 -103.084833    0.001582   4.315    0.00017    0.00032
        786    48 -103.086431 -103.084849    0.001582   4.315    0.00017    0.00031
        787    48 -103.086446 -103.084893    0.001553   4.315    0.00017    0.00030
        788    52 -103.086459 -103.084963    0.001497   4.315    0.00017    0.00028
        789    48 -103.086471 -103.085054    0.001417   4.315    0.00017    0.00026
        790    52 -103.086482 -103.085167    0.001315   4.315    0.00017    0.00023
        791    48 -103.086492 -103.085294    0.001198   4.315    0.00017    0.00020
        792    48 -103.086499 -103.085437    0.001063   4.315    0.00018    0.00017
        793    48 -103.086506 -103.085588    0.000918   4.315    0.00018    0.00014
        794    48 -103.086510 -103.085748    0.000762   4.315    0.00018    0.00012
        795    55 -103.086513 -103.085913    0.000600   4.315    0.00018    0.00010
        796    54 -103.086514 -103.086078    0.000436   4.315    0.00018    0.00010
        797    55 -103.086513 -103.086244    0.000269   4.315    0.00018    0.00011
        798    54 -103.086511 -103.086406    0.000105   4.315    0.00017    0.00012
        799    54 -103.086507 -103.086563    0.000056   4.315    0.00017    0.00015

        ==> Orbital Optimization <==

            Jacobi Optimization converged.
            Total energy change: -1.206289e-05

        800    52 -103.086514 -103.195864    0.109350   4.402    0.00017    0.00017
        801    76 -103.085390 -103.175229    0.089839   4.402    0.00387    0.01760
        802    53 -103.083931 -103.152588    0.068657   4.402    0.00435    0.01161
        803    47 -103.082768 -103.129444    0.046675   4.402    0.00364    0.00958
        804    41 -103.082028 -103.108889    0.026860   4.402    0.00289    0.00796
        805    42 -103.081980 -103.094898    0.012918   4.402    0.00270    0.00660
        806    38 -103.082083 -103.082025    0.000057   4.402    0.00244    0.00630
        807    38 -103.082420 -103.074711    0.007709   4.402    0.00224    0.00654
        808    37 -103.082856 -103.068827    0.014029   4.402    0.00211    0.00675
        809    41 -103.083468 -103.065485    0.017983   4.402    0.00192    0.00680
        810    41 -103.084040 -103.062315    0.021725   4.402    0.00175    0.00690
[...]
        922    38 -109.094830 -109.094731    0.000099   1.422    0.00013    0.00005
        923    38 -109.094827 -109.094753    0.000074   1.422    0.00014    0.00005
        924    38 -109.094824 -109.094772    0.000052   1.422    0.00014    0.00005
        925    36 -109.094821 -109.094789    0.000033   1.422    0.00013    0.00005
        926    35 -109.094819 -109.094803    0.000016   1.422    0.00013    0.00005
        927    35 -109.094816 -109.094814    0.000003   1.422    0.00013    0.00005
        928    35 -109.094815 -109.094822    0.000008   1.422    0.00013    0.00006
        929    35 -109.094813 -109.094828    0.000015   1.422    0.00013    0.00006
        930    35 -109.094812 -109.094832    0.000020   1.422    0.00013    0.00006
        931    35 -109.094811 -109.094833    0.000021   1.422    0.00013    0.00006
        932    35 -109.094811 -109.094832    0.000021   1.422    0.00013    0.00006
        933    35 -109.094811 -109.094829    0.000018   1.422    0.00013    0.00006
        934    35 -109.094811 -109.094824    0.000013   1.422    0.00013    0.00006
        935    35 -109.094811 -109.094818    0.000007   1.422    0.00013    0.00006
        936    35 -109.094812 -109.094811    0.000000   1.422    0.00013    0.00006
        937    38 -109.094812 -109.094804    0.000008   1.422    0.00013    0.00005
        938    38 -109.094813 -109.094795    0.000018   1.422    0.00013    0.00005
        939    38 -109.094813 -109.094786    0.000027   1.422    0.00013    0.00005
        940    38 -109.094814 -109.094777    0.000037   1.422    0.00013    0.00005
        941    38 -109.094814 -109.094767    0.000047   1.422    0.00013    0.00005
        942    38 -109.094815 -109.094758    0.000057   1.422    0.00013    0.00005
        943    38 -109.094815 -109.094749    0.000066   1.422    0.00013    0.00005
        944    38 -109.094815 -109.094740    0.000075   1.422    0.00013    0.00005
        945    38 -109.094815 -109.094731    0.000084   1.422    0.00013    0.00005
        946    38 -109.094815 -109.094723    0.000092   1.422    0.00013    0.00005
        947    38 -109.094815 -109.094716    0.000099   1.422    0.00012    0.00005
        948    38 -109.094815 -109.094709    0.000106   1.422    0.00012    0.00005
        949    38 -109.094815 -109.094703    0.000112   1.422    0.00012    0.00005
        950    38 -109.094815 -109.094698    0.000117   1.422    0.00012    0.00005
        951    38 -109.094815 -109.094694    0.000120   1.422    0.00012    0.00005
        952    38 -109.094815 -109.094691    0.000123   1.422    0.00012    0.00005
        953    35 -109.094815 -109.094689    0.000126   1.422    0.00012    0.00005
        954    35 -109.094815 -109.094689    0.000127   1.422    0.00011    0.00005
        955    36 -109.094816 -109.094689    0.000127   1.422    0.00011    0.00005
        956    35 -109.094816 -109.094691    0.000126   1.422    0.00011    0.00004
        957    35 -109.094817 -109.094693    0.000123   1.422    0.00011    0.00004
        958    35 -109.094818 -109.094697    0.000120   1.422    0.00011    0.00004
        959    36 -109.094818 -109.094702    0.000117   1.422    0.00011    0.00004
        960    39 -109.094819 -109.094708    0.000111   1.422    0.00011    0.00004
        961    39 -109.094820 -109.094714    0.000106   1.422    0.00011    0.00004
        962    39 -109.094821 -109.094721    0.000100   1.422    0.00011    0.00004
        963    39 -109.094821 -109.094727    0.000094   1.422    0.00011    0.00005
        964    39 -109.094822 -109.094735    0.000087   1.422    0.00011    0.00005
        965    39 -109.094823 -109.094742    0.000081   1.422    0.00011    0.00005
        966    39 -109.094823 -109.094749    0.000074   1.422    0.00011    0.00005
        967    39 -109.094823 -109.094755    0.000068   1.422    0.00011    0.00004
        968    42 -109.094824 -109.094761    0.000062   1.422    0.00011    0.00004
        969    42 -109.094824 -109.094766    0.000057   1.422    0.00011    0.00004
        970    42 -109.094824 -109.094771    0.000053   1.422    0.00011    0.00004
        971    42 -109.094824 -109.094775    0.000049   1.422    0.00011    0.00004
        972    42 -109.094823 -109.094777    0.000046   1.422    0.00011    0.00004
        973    42 -109.094823 -109.094779    0.000044   1.422    0.00011    0.00004
        974    42 -109.094822 -109.094779    0.000043   1.422    0.00011    0.00004
        975    42 -109.094822 -109.094779    0.000043   1.422    0.00011    0.00004
        976    42 -109.094821 -109.094778    0.000043   1.422    0.00010    0.00004
        977    42 -109.094820 -109.094775    0.000045   1.422    0.00010    0.00004
        978    42 -109.094820 -109.094772    0.000048   1.422    0.00010    0.00004
        979    42 -109.094819 -109.094768    0.000051   1.422    0.00010    0.00004
        980    42 -109.094819 -109.094763    0.000055   1.422    0.00010    0.00004
        981    42 -109.094818 -109.094758    0.000060   1.422    0.00010    0.00004
        982    42 -109.094818 -109.094753    0.000065   1.422    0.00010    0.00004

        ==> Orbital Optimization <==

            Jacobi Optimization converged.
            Total energy change: -6.429997e-07

        983    70 -109.094929 -109.091797    0.003132   1.422    0.00044    0.00084
        984    42 -109.095070 -109.093109    0.001961   1.422    0.00045    0.00051
        985    40 -109.095155 -109.093976    0.001179   1.422    0.00041    0.00045
        986    36 -109.095166 -109.094385    0.000782   1.422    0.00033    0.00043
        987    38 -109.095138 -109.094531    0.000607   1.422    0.00031    0.00037
        988    38 -109.095106 -109.094543    0.000563   1.422    0.00032    0.00025
        989    38 -109.095079 -109.094525    0.000554   1.422    0.00028    0.00021
        990    40 -109.095051 -109.094576    0.000474   1.422    0.00022    0.00025
        991    40 -109.095018 -109.094782    0.000236   1.422    0.00020    0.00029
        992    40 -109.094981 -109.095112    0.000131   1.422    0.00022    0.00029
        993    38 -109.094942 -109.095472    0.000530   1.422    0.00021    0.00028
        994    35 -109.094902 -109.095743    0.000841   1.422    0.00017    0.00028
        995    35 -109.094861 -109.095870    0.001009   1.422    0.00013    0.00028
        996    32 -109.094823 -109.095836    0.001013   1.422    0.00012    0.00027
        997    36 -109.094788 -109.095695    0.000908   1.422    0.00014    0.00024
        998    37 -109.094759 -109.095510    0.000750   1.422    0.00015    0.00021
        999    37 -109.094740 -109.095335    0.000596   1.422    0.00015    0.00019

        ==> Orbital Optimization <==

            Jacobi Optimization converged.
            Total energy change: -1.604803e-08

       1000    37 -109.094729 -109.094929    0.000200   1.353    0.00016    0.00016
       1001    39 -109.094710 -109.095417    0.000708   1.353    0.00020    0.00018
       1002    38 -109.094704 -109.095317    0.000613   1.353    0.00022    0.00014
       1003    41 -109.094708 -109.095183    0.000476   1.353    0.00022    0.00013
       1004    42 -109.094717 -109.095042    0.000325   1.353    0.00021    0.00014
       1005    42 -109.094732 -109.094922    0.000190   1.353    0.00020    0.00014
       1006    38 -109.094751 -109.094826    0.000075   1.353    0.00019    0.00015
       1007    38 -109.094771 -109.094761    0.000010   1.353    0.00018    0.00015
       1008    37 -109.094789 -109.094712    0.000077   1.353    0.00017    0.00015
       1009    37 -109.094805 -109.094683    0.000123   1.353    0.00016    0.00015
       1010    35 -109.094819 -109.094662    0.000157   1.353    0.00015    0.00014
       1011    32 -109.094829 -109.094650    0.000180   1.353    0.00014    0.00014
       1012    35 -109.094836 -109.094640    0.000196   1.353    0.00014    0.00013
       1013    35 -109.094840 -109.094633    0.000207   1.353    0.00013    0.00012
       1014    35 -109.094841 -109.094626    0.000215   1.353    0.00013    0.00012
       1015    34 -109.094840 -109.094620    0.000220   1.353    0.00013    0.00011
       1016    35 -109.094835 -109.094613    0.000222   1.353    0.00014    0.00011
       1017    35 -109.094830 -109.094605    0.000225   1.353    0.00014    0.00010
       1018    35 -109.094823 -109.094594    0.000229   1.353    0.00015    0.00010
       1019    35 -109.094817 -109.094583    0.000234   1.353    0.00015    0.00009
       1020    35 -109.094812 -109.094571    0.000241   1.353    0.00015    0.00009
       1021    35 -109.094808 -109.094560    0.000249   1.353    0.00014    0.00010
       1022    28 -109.094807 -109.094552    0.000255   1.353    0.00014    0.00010
       1023    34 -109.094807 -109.094546    0.000261   1.353    0.00013    0.00010
       1024    33 -109.094810 -109.094548    0.000261   1.353    0.00012    0.00010
       1025    32 -109.094814 -109.094556    0.000258   1.353    0.00011    0.00010
       1026    33 -109.094819 -109.094570    0.000249   1.353    0.00010    0.00010
       1027    33 -109.094826 -109.094591    0.000234   1.353    0.00009    0.00009
       1028    33 -109.094831 -109.094618    0.000213   1.353    0.00010    0.00009
       1029    34 -109.094837 -109.094650    0.000187   1.353    0.00010    0.00008
       1030    34 -109.094843 -109.094686    0.000157   1.353    0.00011    0.00007
       1031    35 -109.094847 -109.094725    0.000123   1.353    0.00011    0.00006
       1032    35 -109.094851 -109.094765    0.000086   1.353    0.00012    0.00006
       1033    39 -109.094852 -109.094806    0.000047   1.353    0.00012    0.00005
       1034    38 -109.094852 -109.094842    0.000010   1.353    0.00012    0.00006
       1035    39 -109.094851 -109.094878    0.000027   1.353    0.00012    0.00006
       1036    38 -109.094847 -109.094908    0.000061   1.353    0.00012    0.00007
       1037    38 -109.094843 -109.094933    0.000090   1.353    0.00011    0.00007
       1038    37 -109.094837 -109.094950    0.000113   1.353    0.00011    0.00007
       1039    38 -109.094831 -109.094960    0.000129   1.353    0.00011    0.00008
       1040    38 -109.094824 -109.094962    0.000138   1.353    0.00010    0.00008
       1041    38 -109.094817 -109.094957    0.000140   1.353    0.00010    0.00007
       1042    38 -109.094811 -109.094944    0.000133   1.353    0.00010    0.00007
       1043    38 -109.094805 -109.094925    0.000120   1.353    0.00010    0.00006
       1044    38 -109.094800 -109.094900    0.000100   1.353    0.00010    0.00006
       1045    38 -109.094796 -109.094872    0.000076   1.353    0.00011    0.00005
       1046    39 -109.094793 -109.094841    0.000048   1.353    0.00011    0.00005
       1047    39 -109.094792 -109.094809    0.000017   1.353    0.00011    0.00004
       1048    42 -109.094791 -109.094777    0.000014   1.353    0.00011    0.00004
       1049    39 -109.094792 -109.094745    0.000047   1.353    0.00011    0.00004
       1050    42 -109.094793 -109.094718    0.000075   1.353    0.00011    0.00004
       1051    39 -109.094796 -109.094691    0.000105   1.353    0.00010    0.00004
       1052    42 -109.094799 -109.094672    0.000127   1.353    0.00010    0.00005
       1053    38 -109.094802 -109.094653    0.000149   1.353    0.00010    0.00005
       1054    42 -109.094805 -109.094642    0.000164   1.353    0.00009    0.00005
       1055    38 -109.094809 -109.094631    0.000178   1.353    0.00009    0.00005
       1056    39 -109.094813 -109.094628    0.000184   1.353    0.00009    0.00005
       1057    38 -109.094816 -109.094626    0.000189   1.353    0.00009    0.00005
       1058    39 -109.094819 -109.094630    0.000190   1.353    0.00009    0.00005
       1059    38 -109.094822 -109.094635    0.000187   1.353    0.00009    0.00005
       1060    39 -109.094825 -109.094643    0.000182   1.353    0.00009    0.00004
       1061    39 -109.094827 -109.094653    0.000174   1.353    0.00009    0.00004
       1062    39 -109.094829 -109.094665    0.000164   1.353    0.00010    0.00004
       1063    42 -109.094831 -109.094679    0.000152   1.353    0.00010    0.00004
       1064    39 -109.094832 -109.094694    0.000138   1.353    0.00009    0.00003
       1065    42 -109.094832 -109.094709    0.000123   1.353    0.00009    0.00003
       1066    39 -109.094832 -109.094726    0.000107   1.353    0.00009    0.00003
       1067    42 -109.094832 -109.094741    0.000091   1.353    0.00009    0.00004

        ==> Orbital Optimization <==

            Jacobi Optimization converged.
            Total energy change: -2.087637e-08

       1068    57 -109.094863 -109.094067    0.000795   1.353    0.00010    0.00017
       1069    41 -109.094891 -109.094319    0.000573   1.353    0.00012    0.00012
       1070    37 -109.094908 -109.094536    0.000372   1.353    0.00011    0.00010
       1071    36 -109.094910 -109.094683    0.000228   1.353    0.00010    0.00010
       1072    37 -109.094904 -109.094767    0.000136   1.353    0.00009    0.00008
       1073    37 -109.094893 -109.094804    0.000089   1.353    0.00009    0.00006

        ==> Orbital Optimization <==

            Jacobi Optimization converged.
            Total energy change: -2.146137e-08

       1074    51 -109.094911 -109.094137    0.000775   1.353    0.00012    0.00015
       1075    36 -109.094928 -109.094380    0.000548   1.353    0.00014    0.00010
       1076    37 -109.094936 -109.094622    0.000314   1.353    0.00015    0.00006
       1077    40 -109.094929 -109.094819    0.000109   1.353    0.00013    0.00006
       1078    39 -109.094912 -109.094958    0.000046   1.353    0.00011    0.00008
       1079    40 -109.094891 -109.095033    0.000142   1.353    0.00010    0.00009
       1080    37 -109.094869 -109.095053    0.000183   1.353    0.00009    0.00010
       1081    38 -109.094849 -109.095043    0.000194   1.353    0.00009    0.00011
       1082    38 -109.094830 -109.095031    0.000202   1.353    0.00009    0.00011
       1083    37 -109.094813 -109.095029    0.000216   1.353    0.00010    0.00011
       1084    32 -109.094799 -109.095033    0.000234   1.353    0.00010    0.00011
       1085    32 -109.094788 -109.095032    0.000244   1.353    0.00010    0.00010
       1086    34 -109.094781 -109.095016    0.000235   1.353    0.00010    0.00009
       1087    33 -109.094776 -109.094981    0.000205   1.353    0.00010    0.00008
       1088    37 -109.094775 -109.094929    0.000154   1.353    0.00010    0.00008
       1089    38 -109.094777 -109.094872    0.000095   1.353    0.00010    0.00007

        ==> Orbital Optimization <==

            Jacobi Optimization converged.
            Total energy change: -2.842651e-08

       1090    57 -109.094746 -109.095609    0.000863   1.353    0.00018    0.00020
       1091    35 -109.094719 -109.095321    0.000602   1.353    0.00020    0.00013
       1092    37 -109.094706 -109.095059    0.000354   1.353    0.00019    0.00011
       1093    41 -109.094708 -109.094882    0.000175   1.353    0.00016    0.00011
       1094    42 -109.094719 -109.094778    0.000059   1.353    0.00015    0.00010
       1095    42 -109.094735 -109.094740    0.000005   1.353    0.00015    0.00008
       1096    42 -109.094750 -109.094727    0.000024   1.353    0.00014    0.00009
       1097    42 -109.094765 -109.094712    0.000053   1.353    0.00014    0.00010
       1098    39 -109.094778 -109.094670    0.000108   1.353    0.00013    0.00011
       1099    38 -109.094790 -109.094608    0.000182   1.353    0.00013    0.00011
       1100    35 -109.094801 -109.094540    0.000262   1.353    0.00012    0.00011
       1101    34 -109.094812 -109.094490    0.000322   1.353    0.00011    0.00011
       1102    35 -109.094822 -109.094472    0.000350   1.353    0.00010    0.00010
       1103    34 -109.094829 -109.094488    0.000342   1.353    0.00010    0.00010
       1104    35 -109.094835 -109.094527    0.000308   1.353    0.00010    0.00009
       1105    35 -109.094837 -109.094574    0.000263   1.353    0.00010    0.00009
       1106    35 -109.094837 -109.094616    0.000221   1.353    0.00010    0.00008
       1107    37 -109.094834 -109.094644    0.000190   1.353    0.00011    0.00008
       1108    38 -109.094829 -109.094655    0.000174   1.353    0.00011    0.00007
       1109    38 -109.094823 -109.094655    0.000168   1.353    0.00011    0.00007
       1110    38 -109.094818 -109.094650    0.000168   1.353    0.00011    0.00007
       1111    38 -109.094813 -109.094645    0.000168   1.353    0.00011    0.00007
       1112    38 -109.094810 -109.094644    0.000166   1.353    0.00011    0.00007
       1113    35 -109.094809 -109.094647    0.000161   1.353    0.00010    0.00007
       1114    35 -109.094809 -109.094654    0.000155   1.353    0.00010    0.00007
       1115    33 -109.094811 -109.094664    0.000147   1.353    0.00009    0.00007
       1116    33 -109.094814 -109.094675    0.000139   1.353    0.00008    0.00007
       1117    33 -109.094818 -109.094688    0.000129   1.353    0.00007    0.00007
       1118    33 -109.094822 -109.094704    0.000118   1.353    0.00007    0.00007
       1119    35 -109.094826 -109.094723    0.000102   1.353    0.00007    0.00007
       1120    38 -109.094829 -109.094747    0.000082   1.353    0.00007    0.00006

        ==> Orbital Optimization <==

            Jacobi Optimization converged.
            Total energy change: -1.915851e-09


      v2RDM iterations converged!

      v2RDM total spin [S(S+1)]:             0.000002
    * v2RDM total energy:           -109.094829146441



Properties will be evaluated at   0.000000,   0.000000,   0.000000 Bohr


Properties will be evaluated at   0.000000,   0.000000,   0.000000 Bohr

  Mulliken Charges: (a.u.)

   Center  Symbol    Alpha    Beta     Spin     Total
       1     N     3.50000  3.50000  0.00000  0.00000
       2     N     3.50000  3.50000  0.00000  0.00000

   Total alpha =  7.00000, Total beta =  7.00000, Total charge =  0.00000

 # Natural Orbital Occupation Numbers (alpha) #
 Irrep: 1
      1:  1.0000000
      2:  1.0000000
      3:  0.9906691
      4:  0.0000000
      5:  0.0000000
      6:  0.0000000
      7:  0.0000000

 Irrep: 2
      1:  0.0000000

 Irrep: 3
      1:  0.0327500
      2:  0.0000000
      3:  0.0000000

 Irrep: 4
      1:  0.0327500
      2:  0.0000000
      3:  0.0000000

 Irrep: 5
      1:  0.0000000

 Irrep: 6
      1:  1.0000000
      2:  1.0000000
      3:  0.0093410
      4:  0.0000000
      5:  0.0000000
      6:  0.0000000
      7:  0.0000000

 Irrep: 7
      1:  0.9672450
      2:  0.0000000
      3:  0.0000000

 Irrep: 8
      1:  0.9672450
      2:  0.0000000
      3:  0.0000000


 # Natural Orbital Occupation Numbers (beta) #
 Irrep: 1
      1:  1.0000000
      2:  1.0000000
      3:  0.9906179
      4:  0.0000000
      5:  0.0000000
      6:  0.0000000
      7:  0.0000000

 Irrep: 2
      1:  0.0000000

 Irrep: 3
      1:  0.0327309
      2:  0.0000000
      3:  0.0000000

 Irrep: 4
      1:  0.0327309
      2:  0.0000000
      3:  0.0000000

 Irrep: 5
      1:  0.0000000

 Irrep: 6
      1:  1.0000000
      2:  1.0000000
      3:  0.0094031
      4:  0.0000000
      5:  0.0000000
      6:  0.0000000
      7:  0.0000000

 Irrep: 7
      1:  0.9672585
      2:  0.0000000
      3:  0.0000000

 Irrep: 8
      1:  0.9672586
      2:  0.0000000
      3:  0.0000000


*** tstop() called on Eugenes-MacBook-Pro-2.local at Thu Aug 20 09:24:18 2015
Module time:
	user time   =       2.90 seconds =       0.05 minutes
	system time =       0.24 seconds =       0.00 minutes
	total time  =          3 seconds =       0.05 minutes
Total time:
	user time   =       8.67 seconds =       0.14 minutes
	system time =       0.67 seconds =       0.01 minutes
	total time  =          9 seconds =       0.15 minutes

*** PSI4 exiting successfully. Buy a developer a beer!
