    -----------------------------------------------------------------------
          Psi4: An Open-Source Ab Initio Electronic Structure Package
                              Psi4  Driver

                          Git: Rev {detached?}  

    J. M. Turney, A. C. Simmonett, R. M. Parrish, E. G. Hohenstein,
    F. A. Evangelista, J. T. Fermann, B. J. Mintz, L. A. Burns, J. J. Wilke,
    M. L. Abrams, N. J. Russ, M. L. Leininger, C. L. Janssen, E. T. Seidl,
    W. D. Allen, H. F. Schaefer, R. A. King, E. F. Valeev, C. D. Sherrill,
    and T. D. Crawford, WIREs Comput. Mol. Sci. 2, 556-565 (2012)
    (doi: 10.1002/wcms.93)

                         Additional Contributions by
    A. E. DePrince, M. Saitow, U. Bozkaya, A. Yu. Sokolov
    -----------------------------------------------------------------------


    Psi4 started on: Wed Aug 19 09:01:55 2015

    Process ID:  19819
    PSI4DATADIR: /apps/software/psi4public-master/install/share/psi
    Memory level set to 256.000 MB

  ==> Input File <==

--------------------------------------------------------------------------

# PYTHONPATH must include directory above plugin directory.
#     Define either externally or here, then import plugin.
sys.path.insert(0, '../..')
import v2rdm_casscf

molecule mol {
0 1
n
n 1 r
}

set {
  guess sad
  basis cc-pvdz
  scf_type cd
  df_basis_scf cc-pvdz-jkfit 
  cholesky_tolerance 1.0e-12
  d_convergence 1e-10
  maxiter 500
  reference rhf
  frozen_docc  [ 2, 0, 0, 0, 0, 2, 0, 0 ]
  frozen_uocc  [ 4, 1, 2, 2, 1, 4, 2, 2 ]
  #frozen_docc  [  4 ]
  #frozen_uocc  [ 18 ]
}
set v2rdm_casscf {
  positivity dqg
  constrain_spin true
  constrain_d3   false
  spin_adapt_g2  false
  spin_adapt_q2  false
  r_convergence  1e-4
  e_convergence  1e-4
  cg_convergence 1e-6
  jacobi_write 1
  jacobi_nthread 1
  maxiter 20000
}

activate(mol)
mol.r = 0.5
energy('v2rdm-casscf')
mol.r = 1.1
energy('v2rdm-casscf')
--------------------------------------------------------------------------
/home/greg/v2rdm_casscf/v2rdm_casscf.so loaded.
Setting geometry variable r to 0.500000

*** tstart() called on ubuntu
*** at Wed Aug 19 09:01:56 2015


         ---------------------------------------------------------
                                   SCF
            by Justin Turney, Rob Parrish, and Andy Simmonett
                              RHF Reference
                        1 Threads,    256 MiB Core
         ---------------------------------------------------------

  ==> Geometry <==

    Molecular point group: d2h
    Full point group: D_inf_h

    Geometry (in Angstrom), charge = 0, multiplicity = 1:

       Center              X                  Y                   Z       
    ------------   -----------------  -----------------  -----------------
           N          0.000000000000     0.000000000000    -0.250000000000
           N          0.000000000000     0.000000000000     0.250000000000

  Running in d2h symmetry.

  Rotational constants: A = ************  B =      9.63082  C =      9.63082 [cm^-1]
  Rotational constants: A = ************  B = 288724.60708  C = 288724.60708 [MHz]
  Nuclear repulsion =   51.859366441820001

  Charge       = 0
  Multiplicity = 1
  Electrons    = 14
  Nalpha       = 7
  Nbeta        = 7

  ==> Algorithm <==

  SCF Algorithm Type is CD.
  DIIS enabled.
  MOM disabled.
  Fractional occupation disabled.
  Guess Type is SAD.
  Energy threshold   = 1.00e-08
  Density threshold  = 1.00e-10
  Integral threshold = 0.00e+00

  ==> Primary Basis <==

  Basis Set: CC-PVDZ
    Number of shells: 12
    Number of basis function: 28
    Number of Cartesian functions: 30
    Spherical Harmonics?: true
    Max angular momentum: 2

  ==> Pre-Iterations <==

   -------------------------------------------------------
    Irrep   Nso     Nmo     Nalpha   Nbeta   Ndocc  Nsocc
   -------------------------------------------------------
     Ag         7       7       0       0       0       0
     B1g        1       1       0       0       0       0
     B2g        3       3       0       0       0       0
     B3g        3       3       0       0       0       0
     Au         1       1       0       0       0       0
     B1u        7       7       0       0       0       0
     B2u        3       3       0       0       0       0
     B3u        3       3       0       0       0       0
   -------------------------------------------------------
    Total      28      28       7       7       7       0
   -------------------------------------------------------

 OEINTS: Overlap, kinetic, potential, dipole, and quadrupole integrals
         stored in file 35.

  ==> Integral Setup <==

  ==> CDJK: Cholesky-decomposed J/K Matrices <==

    J tasked:                     Yes
    K tasked:                     Yes
    wK tasked:                     No
    OpenMP threads:                 1
    Integrals threads:              1
    Memory (MB):                  183
    Algorithm:                   Core
    Integral Cache:              SAVE
    Schwarz Cutoff:             1E-12
    Cholesky tolerance:      1.00E-12
    No. Cholesky vectors:         342

  Minimum eigenvalue in the overlap matrix is 1.5735752976E-04.
  Using Symmetric Orthogonalization.
  SCF Guess: Superposition of Atomic Densities via on-the-fly atomic UHF.

  ==> Iterations <==

                        Total Energy        Delta E     RMS |[F,P]|

   @RHF iter   0:  -108.43313563584839   -1.08433e+02   6.40176e-01 
   @RHF iter   1:  -102.97629848396859    5.45684e+00   3.61568e-02 
   @RHF iter   2:  -103.03944141272054   -6.31429e-02   8.03986e-03 DIIS
   @RHF iter   3:  -103.04308258116997   -3.64117e-03   1.69823e-03 DIIS
   @RHF iter   4:  -103.04337123225626   -2.88651e-04   1.63033e-04 DIIS
   @RHF iter   5:  -103.04337415455613   -2.92230e-06   2.21180e-05 DIIS
   @RHF iter   6:  -103.04337420396443   -4.94083e-08   1.69295e-06 DIIS
   @RHF iter   7:  -103.04337420425013   -2.85695e-10   1.89426e-07 DIIS
   @RHF iter   8:  -103.04337420425342   -3.29692e-12   9.15024e-09 DIIS
   @RHF iter   9:  -103.04337420425340    2.84217e-14   6.29938e-10 DIIS
   @RHF iter  10:  -103.04337420425337    2.84217e-14   6.32216e-11 DIIS

  ==> Post-Iterations <==

    Orbital Energies (a.u.)
    -----------------------

    Doubly Occupied:                                                      

       1Ag   -16.484161     1B1u  -15.785893     2Ag    -1.444309  
       1B3u   -1.176599     1B2u   -1.176599     2B1u   -0.543616  
       3Ag    -0.524272  

    Virtual:                                                              

       1B3g    0.538181     1B2g    0.538181     2B2u    0.594641  
       2B3u    0.594641     3B1u    0.614128     4Ag     0.726476  
       5Ag     1.055370     2B2g    1.450590     2B3g    1.450590  
       6Ag     1.682008     1B1g    1.682008     4B1u    1.789550  
       3B3u    2.801107     3B2u    2.801107     5B1u    2.816412  
       6B1u    2.841104     1Au     2.841104     7Ag     3.148621  
       3B3g    4.716074     3B2g    4.716074     7B1u   13.525785  

    Final Occupation by Irrep:
             Ag   B1g   B2g   B3g    Au   B1u   B2u   B3u 
    DOCC [     3,    0,    0,    0,    0,    2,    1,    1 ]

  Energy converged.

  @RHF Final Energy:  -103.04337420425337

   => Energetics <=

    Nuclear Repulsion Energy =             51.8593664418200007
    One-Electron Energy =                -235.5345802017045003
    Two-Electron Energy =                  80.6318395556311174
    DFT Exchange-Correlation Energy =       0.0000000000000000
    Empirical Dispersion Energy =           0.0000000000000000
    PCM Polarization Energy =               0.0000000000000000
    EFP Energy =                            0.0000000000000000
    Total Energy =                       -103.0433742042533964

    Alert: EFP and PCM quantities not currently incorporated into SCF psivars.

Properties will be evaluated at   0.000000,   0.000000,   0.000000 Bohr
  ==> Properties <==


Properties computed using the SCF density matrix

  Nuclear Dipole Moment: (a.u.)
     X:     0.0000      Y:     0.0000      Z:     0.0000

  Electronic Dipole Moment: (a.u.)
     X:     0.0000      Y:     0.0000      Z:     0.0000

  Dipole Moment: (a.u.)
     X:     0.0000      Y:     0.0000      Z:     0.0000     Total:     0.0000

  Dipole Moment: (Debye)
     X:     0.0000      Y:     0.0000      Z:     0.0000     Total:     0.0000


  Saving occupied orbitals to File 180.

*** tstop() called on ubuntu at Wed Aug 19 09:01:57 2015
Module time:
	user time   =       0.84 seconds =       0.01 minutes
	system time =       0.01 seconds =       0.00 minutes
	total time  =          1 seconds =       0.02 minutes
Total time:
	user time   =       0.84 seconds =       0.01 minutes
	system time =       0.01 seconds =       0.00 minutes
	total time  =          1 seconds =       0.02 minutes
Reading options from the V2RDM_CASSCF block
Calling plugin v2rdm_casscf.so.

*** tstart() called on ubuntu
*** at Wed Aug 19 09:01:57 2015



        *******************************************************
        *                                                     *
        *    v-2RDM                                           *
        *                                                     *
        *    Ground-state variational 2-RDM optimization      *
        *    using a boundary-point semidefinite solver       *
        *                                                     *
        *    Eugene DePrince                                  *
        *                                                     *
        *******************************************************

  ==> Input parameters <==

        Freeze core orbitals?                 yes
        Number of frozen core orbitals:         4
        Number of active occupied orbitals:     3
        Number of active virtual orbitals:      3
        Number of frozen virtual orbitals:     18
        r_convergence:                  1.000e-04
        e_convergence:                  1.000e-04
        cg_convergence:                 1.000e-06
        maxiter:                            20000
        cg_maxiter:                         10000

  ==> Memory requirements <==

        D2:                          0.00 mb
        Q2:                          0.00 mb
        G2:                          0.01 mb

        Total number of variables:           1500
        Total number of constraints:         1282
        Total memory requirements:        1.15 mb

    ==> Transform three-electron integrals <==


        Time for integral transformation:     0.03 s


    reference energy:        -103.043374204253
    frozen core energy:      -138.046901361581
    initial 2-RDM energy:     -73.010112080352

      oiter iiter        E(p)        E(d)      E gap)      mu     eps(p)     eps(d)
          0    72 -113.941412  144.409391  258.350803   1.000   50.74068   72.62450
          1    40  -82.916291 -268.306506  185.390215   1.000    9.54548   30.76567
          2    47 -110.283634 -113.264961    2.981327   1.000   13.99508    6.56312
          3    39  -97.936733 -103.536457    5.599724   1.000    6.27719    3.71711
          4    42 -101.741372 -102.024613    0.283242   1.000    3.33991    2.97693
          5    42  -98.741621  -99.772493    1.030872   1.000    1.77418    2.12870
          6    35 -101.061336  -98.945778    2.115558   1.000    1.26895    1.54999
          7    38 -100.452390  -97.696522    2.755868   1.000    0.81385    1.45597
          8    37 -101.366879 -100.009697    1.357182   1.000    0.58949    0.87807
          9    42 -101.053608 -100.255623    0.797985   1.000    0.24496    0.67620
         10    42 -101.430552 -100.232603    1.197949   1.000    0.22698    0.53730
         11    38 -101.465221  -99.907486    1.557734   1.000    0.19763    0.45878
         12    35 -101.745754  -99.926188    1.819566   1.000    0.16128    0.42016
         13    41 -101.845814 -100.140808    1.705006   1.000    0.17640    0.38935
         14    40 -101.991367 -100.408718    1.582649   1.000    0.15328    0.37369
         15    40 -102.066653 -100.529773    1.536880   1.000    0.14244    0.36035
         16    37 -102.181347 -100.561004    1.620344   1.000    0.15566    0.34700
         17    40 -102.273564 -100.624916    1.648648   1.000    0.16599    0.33607
         18    33 -102.377845 -100.694224    1.683621   1.000    0.17032    0.32790
         19    38 -102.468106 -100.835251    1.632855   1.000    0.16228    0.31748
         20    38 -102.547464 -101.032834    1.514631   1.000    0.16806    0.29543
         21    39 -102.600128 -101.370740    1.229388   1.000    0.19913    0.25470
         22    40 -102.631138 -101.865731    0.765407   1.000    0.22707    0.20315
         23    40 -102.646065 -102.332704    0.313361   1.000    0.20887    0.17545
         24    38 -102.654531 -102.606503    0.048028   1.000    0.15930    0.17753
         25    32 -102.659569 -102.660263    0.000694   1.000    0.11555    0.17791
         26    38 -102.670168 -102.553411    0.116756   1.000    0.09681    0.16945
         27    41 -102.686494 -102.335751    0.350743   1.000    0.09452    0.15997
         28    40 -102.711625 -102.102970    0.608654   1.000    0.08978    0.15474
         29    38 -102.741663 -101.946862    0.794801   1.000    0.08225    0.15178
         30    32 -102.769765 -101.892299    0.877466   1.000    0.07606    0.15001
         31    38 -102.794801 -101.913210    0.881591   1.000    0.06926    0.14858
         32    38 -102.815850 -101.994821    0.821029   1.000    0.06069    0.14682
         33    38 -102.834087 -102.104079    0.730008   1.000    0.06536    0.14345
         34    39 -102.847518 -102.254377    0.593141   1.000    0.08231    0.13758
         35    34 -102.853648 -102.396882    0.456766   1.000    0.08357    0.13175
         36    32 -102.857039 -102.454248    0.402792   1.000    0.07074    0.12839
         37    38 -102.866084 -102.402816    0.463267   1.000    0.05992    0.12697
         38    38 -102.884567 -102.306988    0.577579   1.000    0.04740    0.12740
         39    37 -102.907261 -102.231738    0.675523   1.000    0.02986    0.12823
         40    32 -102.931367 -102.205094    0.726272   1.000    0.01949    0.12773
         41    41 -102.952856 -102.226709    0.726147   1.000    0.02665    0.12590
         42    41 -102.969986 -102.270316    0.699670   1.000    0.03116    0.12447
         43    40 -102.983222 -102.307126    0.676096   1.000    0.02759    0.12435
         44    38 -102.994638 -102.319471    0.675167   1.000    0.01963    0.12488
         45    31 -103.006338 -102.307108    0.699230   1.000    0.01342    0.12511
         46    38 -103.019416 -102.282632    0.736784   1.000    0.01379    0.12484
         47    40 -103.034490 -102.260133    0.774357   1.000    0.01709    0.12431
         48    40 -103.048337 -102.251559    0.796778   1.000    0.03679    0.11848
         49    35 -103.068606 -102.335460    0.733146   1.000    0.11763    0.08980
         50    41 -103.098881 -102.727652    0.371229   1.000    0.15262    0.03666
         51    47 -103.095910 -103.196950    0.101040   1.000    0.12773    0.03852
         52    42 -103.075652 -103.498983    0.423331   1.000    0.06876    0.05402
         53    38 -103.049586 -103.564438    0.514852   1.000    0.02658    0.05210
         54    41 -103.028663 -103.429013    0.400349   1.000    0.06023    0.03899
         55    41 -103.019138 -103.187541    0.168403   1.000    0.07714    0.02030
         56    42 -103.023393 -102.951587    0.071806   1.000    0.06439    0.01356
         57    47 -103.036468 -102.806053    0.230415   1.000    0.03322    0.02467
         58    32 -103.051606 -102.785697    0.265909   1.000    0.01576    0.02682
         59    41 -103.061488 -102.863162    0.198327   1.000    0.03503    0.01960
         60    41 -103.065005 -102.988567    0.076438   1.000    0.04281    0.00728
         61    48 -103.061887 -103.108326    0.046439   1.000    0.03510    0.00679
         62    46 -103.054690 -103.179407    0.124717   1.000    0.01936    0.01337
         63    32 -103.047251 -103.186706    0.139455   1.000    0.01257    0.01398
         64    39 -103.042436 -103.142986    0.100550   1.000    0.02029    0.00975
         65    41 -103.041168 -103.075228    0.034060   1.000    0.02315    0.00406
         66    47 -103.043252 -103.013779    0.029473   1.000    0.01894    0.00469
         67    41 -103.046974 -102.979601    0.067373   1.000    0.01246    0.00747
         68    31 -103.050709 -102.978865    0.071844   1.000    0.01132    0.00751
         69    41 -103.052954 -103.003325    0.049629   1.000    0.01443    0.00533
         70    41 -103.053514 -103.038288    0.015226   1.000    0.01533    0.00283
         71    46 -103.052513 -103.069479    0.016966   1.000    0.01319    0.00324
         72    42 -103.050433 -103.086822    0.036389   1.000    0.01036    0.00451
         73    34 -103.048291 -103.087999    0.039707   1.000    0.00976    0.00451
         74    39 -103.046915 -103.075080    0.028165   1.000    0.01079    0.00341
         75    41 -103.046464 -103.056110    0.009646   1.000    0.01112    0.00223
         76    41 -103.046283 -103.038732    0.007551   1.000    0.00955    0.00248
         77    41 -103.047549 -103.029634    0.017914   1.000    0.00877    0.00276
         78    38 -103.048543 -103.029410    0.019133   1.000    0.00877    0.00271
         79    41 -103.049554 -103.035223    0.014331   1.000    0.00898    0.00228
         80    42 -103.049840 -103.044157    0.005683   1.000    0.00904    0.00179
         81    47 -103.049647 -103.052568    0.002921   1.000    0.00872    0.00172
         82    47 -103.049073 -103.058331    0.009258   1.000    0.00828    0.00187
         83    41 -103.048389 -103.059912    0.011523   1.000    0.00794    0.00193
         84    41 -103.047887 -103.057798    0.009910   1.000    0.00785    0.00174
         85    41 -103.047602 -103.053154    0.005553   1.000    0.00781    0.00146
         86    41 -103.047648 -103.047883    0.000235   1.000    0.00770    0.00134
         87    41 -103.047925 -103.043877    0.004049   1.000    0.00754    0.00138
         88    41 -103.048313 -103.042227    0.006086   1.000    0.00744    0.00140
         89    41 -103.048649 -103.042970    0.005678   1.000    0.00741    0.00133
         90    41 -103.048839 -103.045358    0.003481   1.000    0.00738    0.00122
         91    41 -103.048853 -103.048269    0.000584   1.000    0.00731    0.00114
         92    41 -103.049243 -103.050657    0.001414   1.000    0.00694    0.00116
         93    41 -103.050020 -103.052202    0.002182   1.000    0.00630    0.00120
         94    41 -103.050058 -103.052737    0.002678   1.000    0.00610    0.00115
         95    42 -103.050414 -103.051699    0.001286   1.000    0.00569    0.00110
         96    42 -103.050564 -103.050125    0.000439   1.000    0.00560    0.00100
         97    43 -103.050431 -103.048328    0.002103   1.000    0.00554    0.00095
         98    47 -103.050492 -103.046770    0.003722   1.000    0.00548    0.00099
         99    43 -103.050498 -103.046256    0.004241   1.000    0.00545    0.00094
        100    42 -103.050500 -103.046516    0.003984   1.000    0.00541    0.00093
        101    41 -103.050518 -103.047374    0.003145   1.000    0.00537    0.00092
        102    42 -103.050514 -103.048499    0.002014   1.000    0.00528    0.00089
        103    43 -103.050505 -103.049449    0.001056   1.000    0.00521    0.00086
        104    41 -103.050508 -103.050094    0.000414   1.000    0.00513    0.00088
        105    43 -103.050492 -103.050287    0.000204   1.000    0.00505    0.00085
        106    47 -103.050461 -103.049921    0.000540   1.000    0.00496    0.00090
        107    46 -103.050438 -103.049559    0.000879   1.000    0.00484    0.00088
        108    47 -103.050425 -103.049249    0.001176   1.000    0.00464    0.00101
        109    47 -103.050400 -103.049526    0.000874   1.000    0.00454    0.00092
        110    41 -103.050370 -103.050121    0.000249   1.000    0.00448    0.00079
        111    47 -103.050358 -103.050026    0.000331   1.000    0.00449    0.00071
        112    51 -103.050346 -103.049161    0.001185   1.000    0.00451    0.00067
        113    47 -103.050314 -103.048077    0.002237   1.000    0.00442    0.00085
        114    47 -103.050255 -103.047646    0.002609   1.000    0.00437    0.00067
        115    51 -103.050276 -103.047195    0.003081   1.000    0.00428    0.00063
        116    47 -103.050261 -103.047361    0.002900   1.000    0.00417    0.00061
        117    47 -103.050251 -103.047769    0.002482   1.000    0.00411    0.00061
        118    47 -103.050219 -103.048447    0.001772   1.000    0.00409    0.00057
        119    47 -103.050223 -103.048521    0.001702   1.000    0.00409    0.00055
        120    47 -103.050177 -103.048631    0.001546   1.000    0.00408    0.00054
        121    47 -103.050161 -103.048365    0.001797   1.000    0.00406    0.00053
        122    51 -103.050138 -103.048156    0.001982   1.000    0.00404    0.00062
        123    46 -103.050111 -103.048398    0.001714   1.000    0.00401    0.00055
        124    47 -103.050133 -103.048109    0.002025   1.000    0.00399    0.00051
        125    53 -103.050091 -103.048164    0.001927   1.000    0.00396    0.00050
        126    53 -103.050087 -103.047985    0.002102   1.000    0.00394    0.00048
        127    53 -103.050070 -103.047953    0.002117   1.000    0.00392    0.00048
        128    53 -103.050064 -103.047847    0.002217   1.000    0.00387    0.00052
        129    46 -103.050035 -103.048098    0.001936   1.000    0.00385    0.00047
        130    47 -103.050349 -103.047996    0.002353   1.000    0.00381    0.00050
        131    47 -103.050120 -103.048228    0.001892   1.000    0.00378    0.00047
        132    47 -103.050229 -103.047964    0.002265   1.000    0.00375    0.00045
        133    53 -103.050064 -103.048008    0.002056   1.000    0.00370    0.00049
        134    47 -103.050123 -103.048003    0.002121   1.000    0.00369    0.00045
        135    47 -103.049908 -103.048050    0.001858   1.000    0.00368    0.00050
        136    48 -103.049840 -103.048228    0.001612   1.000    0.00376    0.00050
        137    47 -103.049849 -103.048509    0.001340   1.000    0.00372    0.00044
        138    53 -103.049824 -103.048510    0.001314   1.000    0.00371    0.00042
        139    54 -103.049818 -103.048402    0.001415   1.000    0.00367    0.00041
        140    54 -103.049782 -103.048226    0.001557   1.000    0.00366    0.00040
        141    53 -103.049770 -103.048003    0.001766   1.000    0.00365    0.00039
        142    54 -103.049954 -103.047729    0.002225   1.000    0.00355    0.00041
        143    53 -103.049964 -103.047661    0.002304   1.000    0.00355    0.00045
        144    47 -103.049963 -103.047611    0.002352   1.000    0.00355    0.00039
        145    53 -103.049958 -103.047535    0.002423   1.000    0.00352    0.00038
        146    53 -103.049937 -103.047554    0.002383   1.000    0.00350    0.00037
        147    53 -103.049912 -103.047574    0.002337   1.000    0.00346    0.00040
        148    47 -103.049856 -103.047820    0.002036   1.000    0.00346    0.00052
        149    42 -103.049904 -103.048393    0.001511   1.000    0.00348    0.00041
        150    47 -103.049856 -103.048748    0.001108   1.000    0.00346    0.00054
        151    42 -103.049896 -103.049025    0.000871   1.000    0.00350    0.00043
        152    42 -103.049846 -103.049026    0.000821   1.000    0.00351    0.00039
        153    42 -103.049850 -103.048664    0.001186   1.000    0.00351    0.00050
        154    41 -103.049767 -103.048527    0.001240   1.000    0.00355    0.00047
        155    45 -103.049794 -103.048497    0.001297   1.000    0.00354    0.00037
        156    46 -103.049747 -103.048246    0.001500   1.000    0.00356    0.00034
        157    47 -103.049754 -103.047884    0.001869   1.000    0.00356    0.00031
        158    47 -103.049735 -103.047490    0.002244   1.000    0.00355    0.00031
        159    47 -103.049743 -103.047208    0.002535   1.000    0.00351    0.00041
        160    46 -103.049708 -103.047210    0.002498   1.000    0.00330    0.00052
        161    46 -103.049707 -103.047642    0.002065   1.000    0.00322    0.00045
        162    45 -103.049735 -103.048319    0.001416   1.000    0.00320    0.00054
        163    40 -103.049756 -103.049100    0.000656   1.000    0.00325    0.00042
        164    46 -103.049723 -103.049513    0.000209   1.000    0.00329    0.00038
        165    47 -103.049615 -103.049512    0.000103   1.000    0.00316    0.00058
        166    42 -103.049617 -103.049707    0.000091   1.000    0.00316    0.00065
        167    40 -103.049533 -103.049777    0.000243   1.000    0.00315    0.00047
        168    43 -103.049525 -103.049586    0.000061   1.000    0.00324    0.00037
        169    47 -103.049509 -103.049019    0.000490   1.000    0.00331    0.00032
        170    47 -103.049525 -103.048293    0.001232   1.000    0.00334    0.00042
        171    41 -103.049550 -103.047872    0.001677   1.000    0.00333    0.00035
        172    47 -103.049538 -103.047530    0.002007   1.000    0.00332    0.00029
        173    46 -103.049529 -103.047201    0.002328   1.000    0.00329    0.00028
        174    47 -103.049515 -103.046906    0.002609   1.000    0.00326    0.00026
        175    47 -103.049517 -103.046628    0.002889   1.000    0.00322    0.00025
        176    47 -103.049530 -103.046494    0.003036   1.000    0.00317    0.00028
        177    46 -103.049439 -103.046598    0.002841   1.000    0.00275    0.00039
        178    42 -103.049454 -103.046948    0.002506   1.000    0.00278    0.00029
        179    47 -103.049414 -103.047340    0.002074   1.000    0.00270    0.00023
        180    47 -103.049415 -103.047729    0.001686   1.000    0.00273    0.00022
        181    47 -103.049398 -103.048030    0.001368   1.000    0.00272    0.00022
        182    47 -103.049304 -103.048218    0.001086   1.000    0.00249    0.00033
        183    42 -103.049311 -103.048429    0.000882   1.000    0.00253    0.00027
        184    47 -103.049278 -103.048522    0.000757   1.000    0.00251    0.00025
        185    47 -103.049274 -103.048510    0.000764   1.000    0.00254    0.00024
        186    47 -103.049255 -103.048382    0.000873   1.000    0.00256    0.00022
        187    49 -103.049247 -103.048151    0.001096   1.000    0.00258    0.00020
        188    47 -103.049237 -103.047852    0.001385   1.000    0.00259    0.00019
        189    47 -103.049231 -103.047540    0.001691   1.000    0.00259    0.00019
        190    47 -103.049226 -103.047256    0.001970   1.000    0.00257    0.00019
        191    47 -103.049222 -103.047030    0.002192   1.000    0.00254    0.00019
        192    49 -103.049221 -103.046878    0.002344   1.000    0.00251    0.00019
        193    49 -103.049221 -103.046805    0.002416   1.000    0.00249    0.00020
        194    49 -103.049223 -103.046814    0.002409   1.000    0.00246    0.00020
        195    49 -103.049224 -103.046898    0.002325   1.000    0.00244    0.00019
        196    48 -103.049223 -103.047046    0.002178   1.000    0.00243    0.00019
        197    49 -103.049220 -103.047234    0.001985   1.000    0.00241    0.00018
        198    49 -103.049214 -103.047439    0.001775   1.000    0.00241    0.00018
        199    49 -103.049206 -103.047634    0.001573   1.000    0.00241    0.00018

        ==> Orbital Optimization <==

            Jacobi Optimization did not converge.
            Total energy change: -2.741036e-02

        200    49 -103.076607 -101.670265    1.406342  13.528    0.00241    0.00018
        201    92 -103.091347 -100.196839    2.894508  13.528    0.03221    0.40094
        202    61 -103.102130 -101.620899    1.481231  13.528    0.03994    0.27464
        203    59 -103.102101 -103.306647    0.204545  13.528    0.03705    0.20314
        204    54 -103.097695 -104.534346    1.436651  13.528    0.02299    0.24086
        205    54 -103.090828 -104.964352    1.873524  13.528    0.00958    0.24598
        206    61 -103.085897 -104.612594    1.526697  13.528    0.01572    0.21252
        207    61 -103.084772 -103.785379    0.700607  13.528    0.02194    0.15953
        208    59 -103.087555 -102.893003    0.194552  13.528    0.02052    0.13248
        209    55 -103.089924 -102.347660    0.742264  13.528    0.01347    0.15166
        210    55 -103.098767 -102.450206    0.648561  13.528    0.00945    0.13413
        211    60 -103.099057 -102.705029    0.394028  13.528    0.01172    0.10930
        212    54 -103.102491 -103.005646    0.096845  13.528    0.01170    0.09163
        213    52 -103.102420 -103.275325    0.172905  13.528    0.01109    0.07943
        214    54 -103.102729 -103.456472    0.353742  13.528    0.00956    0.07739
        215    49 -103.100953 -103.555629    0.454676  13.528    0.00938    0.07859
        216    38 -103.101921 -103.583201    0.481281  13.528    0.00813    0.08097
        217    53 -103.101721 -103.593671    0.491950  13.528    0.00846    0.08829
        218    47 -103.097457 -103.627704    0.530247  13.528    0.00613    0.09176
        219    43 -103.095003 -103.669672    0.574669  13.528    0.00509    0.09540
        220    53 -103.093036 -103.741920    0.648883  13.528    0.00504    0.09096
        221    53 -103.090870 -103.685845    0.594975  13.528    0.00593    0.08527
        222    53 -103.089106 -103.622166    0.533060  13.528    0.00677    0.08305
        223    54 -103.087598 -103.537686    0.450088  13.528    0.00746    0.07241
        224    53 -103.085926 -103.434049    0.348123  13.528    0.00757    0.06176
        225    54 -103.084922 -103.329640    0.244718  13.528    0.00758    0.05248
        226    54 -103.084266 -103.234171    0.149905  13.528    0.00697    0.04438
        227    54 -103.084577 -103.133479    0.048902  13.528    0.00687    0.03971
        228    55 -103.085317 -103.028712    0.056605  13.528    0.00657    0.04070
        229    55 -103.086478 -102.929158    0.157320  13.528    0.00607    0.04474
        230    54 -103.087790 -102.848564    0.239226  13.528    0.00520    0.04895
        231    53 -103.089186 -102.795872    0.293314  13.528    0.00412    0.05217
        232    53 -103.090607 -102.779096    0.311511  13.528    0.00322    0.05307
        233    47 -103.092045 -102.789952    0.302093  13.528    0.00282    0.05142
        234    53 -103.093182 -102.822778    0.270404  13.528    0.00276    0.04768
        235    59 -103.094010 -102.876615    0.217395  13.528    0.00321    0.04236
        236    54 -103.094929 -102.941062    0.153867  13.528    0.00350    0.03536
        237    53 -103.095499 -102.999935    0.095563  13.528    0.00377    0.02819
        238    53 -103.095823 -103.060521    0.035301  13.528    0.00385    0.02238
        239    53 -103.095775 -103.120085    0.024311  13.528    0.00382    0.02119
        240    55 -103.095264 -103.184159    0.088895  13.528    0.00373    0.02280
        241    53 -103.094688 -103.242069    0.147382  13.528    0.00345    0.02691
        242    53 -103.093829 -103.293830    0.200001  13.528    0.00314    0.03113
        243    53 -103.092758 -103.326229    0.233471  13.528    0.00282    0.03440
        244    53 -103.091259 -103.342383    0.251124  13.528    0.00265    0.03627
        245    53 -103.089991 -103.346588    0.256597  13.528    0.00244    0.03659
        246    53 -103.089037 -103.338433    0.249396  13.528    0.00281    0.03522
        247    54 -103.088222 -103.308856    0.220633  13.528    0.00327    0.03196
        248    54 -103.087582 -103.265917    0.178335  13.528    0.00368    0.02767
        249    54 -103.087162 -103.218635    0.131473  13.528    0.00389    0.02296
        250    53 -103.086936 -103.169633    0.082696  13.528    0.00397    0.01826
        251    53 -103.086657 -103.121768    0.035111  13.528    0.00362    0.01503
        252    54 -103.086698 -103.079667    0.007031  13.528    0.00347    0.01343
        253    54 -103.086654 -103.039544    0.047109  13.528    0.00313    0.01585
        254    56 -103.087174 -103.007569    0.079606  13.528    0.00297    0.01785
        255    54 -103.087564 -102.976649    0.110915  13.528    0.00270    0.02082
        256    55 -103.088200 -102.959459    0.128742  13.528    0.00242    0.02241
        257    53 -103.088829 -102.948432    0.140397  13.528    0.00221    0.02393
        258    53 -103.089538 -102.953797    0.135741  13.528    0.00210    0.02359
        259    53 -103.090146 -102.961169    0.128977  13.528    0.00208    0.02163
        260    53 -103.090676 -102.977217    0.113459  13.528    0.00210    0.01958
        261    53 -103.091062 -103.001450    0.089612  13.528    0.00215    0.01604
        262    52 -103.091260 -103.023937    0.067323  13.528    0.00221    0.01307
        263    53 -103.091313 -103.051518    0.039796  13.528    0.00225    0.01091
        264    52 -103.091252 -103.082110    0.009142  13.528    0.00229    0.00961
        265    52 -103.091110 -103.111780    0.020670  13.528    0.00229    0.00955
        266    54 -103.090907 -103.136990    0.046083  13.528    0.00225    0.01089
        267    54 -103.090628 -103.157824    0.067195  13.528    0.00219    0.01273
        268    55 -103.090281 -103.173352    0.083070  13.528    0.00213    0.01441
        269    53 -103.089884 -103.183529    0.093645  13.528    0.00211    0.01563
        270    54 -103.089450 -103.188175    0.098725  13.528    0.00214    0.01627
        271    54 -103.088826 -103.187403    0.098576  13.528    0.00209    0.01644
        272    55 -103.088363 -103.183443    0.095079  13.528    0.00216    0.01579
        273    54 -103.087938 -103.174070    0.086132  13.528    0.00224    0.01452
        274    54 -103.087313 -103.161037    0.073724  13.528    0.00230    0.01332
        275    56 -103.086913 -103.147226    0.060313  13.528    0.00221    0.01175
        276    54 -103.086685 -103.130520    0.043835  13.528    0.00222    0.01208
        277    53 -103.086525 -103.117269    0.030744  13.528    0.00214    0.01001
        278    54 -103.086494 -103.095915    0.009421  13.528    0.00216    0.00854
        279    54 -103.086493 -103.077730    0.008762  13.528    0.00213    0.00784
        280    52 -103.086553 -103.059600    0.026953  13.528    0.00209    0.00791
        281    54 -103.086673 -103.043728    0.042944  13.528    0.00203    0.00877
        282    53 -103.086849 -103.030163    0.056685  13.528    0.00196    0.00981
        283    54 -103.087080 -103.019941    0.067139  13.528    0.00189    0.01071
        284    54 -103.087322 -103.014327    0.072995  13.528    0.00185    0.01130
        285    54 -103.087547 -103.013645    0.073902  13.528    0.00178    0.01169
        286    58 -103.087826 -103.018384    0.069443  13.528    0.00172    0.01129
        287    51 -103.088108 -103.022524    0.065584  13.528    0.00172    0.01073
        288    56 -103.088360 -103.029764    0.058596  13.528    0.00174    0.01001
        289    53 -103.088560 -103.039162    0.049398  13.528    0.00179    0.00887
        290    53 -103.088714 -103.050078    0.038636  13.528    0.00182    0.00765
        291    58 -103.088815 -103.061403    0.027412  13.528    0.00183    0.00656
        292    53 -103.088849 -103.073509    0.015340  13.528    0.00183    0.00593
        293    55 -103.088816 -103.085535    0.003280  13.528    0.00182    0.00587
        294    55 -103.088722 -103.097210    0.008488  13.528    0.00180    0.00629
        295    55 -103.088574 -103.107807    0.019232  13.528    0.00178    0.00698
        296    53 -103.088385 -103.116765    0.028380  13.528    0.00175    0.00769
        297    53 -103.088166 -103.123549    0.035383  13.528    0.00174    0.00825
        298    52 -103.087925 -103.127830    0.039905  13.528    0.00173    0.00856
        299    53 -103.087679 -103.129481    0.041802  13.528    0.00172    0.00884
        300    59 -103.087461 -103.130139    0.042679  13.528    0.00178    0.00869
        301    59 -103.087255 -103.128726    0.041471  13.528    0.00185    0.00831
        302    54 -103.087050 -103.124169    0.037119  13.528    0.00192    0.00778
        303    54 -103.086866 -103.117312    0.030445  13.528    0.00199    0.00702
        304    54 -103.086715 -103.108650    0.021934  13.528    0.00204    0.00616
        305    53 -103.086607 -103.099204    0.012597  13.528    0.00205    0.00558
        306    54 -103.086529 -103.090537    0.004008  13.528    0.00202    0.00483
        307    54 -103.086488 -103.080648    0.005840  13.528    0.00199    0.00458
        308    54 -103.086489 -103.071886    0.014603  13.528    0.00193    0.00475
        309    54 -103.086534 -103.063531    0.023003  13.528    0.00188    0.00515
        310    54 -103.086613 -103.056507    0.030107  13.528    0.00183    0.00561
        311    54 -103.086728 -103.050654    0.036074  13.528    0.00179    0.00605
        312    55 -103.086810 -103.046389    0.040421  13.528    0.00168    0.00645
        313    53 -103.086726 -103.044261    0.042465  13.528    0.00145    0.00710
        314    59 -103.086934 -103.045976    0.040958  13.528    0.00150    0.00699
        315    56 -103.086977 -103.046351    0.040626  13.528    0.00146    0.00683
        316    60 -103.087122 -103.049368    0.037754  13.528    0.00149    0.00647
        317    56 -103.087208 -103.052476    0.034732  13.528    0.00148    0.00598
        318    55 -103.087321 -103.057065    0.030256  13.528    0.00148    0.00591
        319    58 -103.087377 -103.063667    0.023710  13.528    0.00146    0.00541
        320    59 -103.087403 -103.070457    0.016946  13.528    0.00143    0.00550
        321    54 -103.087372 -103.077799    0.009573  13.528    0.00141    0.00541
        322    56 -103.087312 -103.083282    0.004030  13.528    0.00138    0.00541
        323    59 -103.087214 -103.088757    0.001543  13.528    0.00137    0.00537
        324    56 -103.087092 -103.092781    0.005689  13.528    0.00135    0.00528
        325    59 -103.086946 -103.096110    0.009165  13.528    0.00134    0.00515
        326    53 -103.086800 -103.098170    0.011370  13.528    0.00133    0.00501
        327    54 -103.086657 -103.099359    0.012702  13.528    0.00131    0.00489
        328    59 -103.086531 -103.099506    0.012975  13.528    0.00129    0.00482
        329    54 -103.086423 -103.098856    0.012433  13.528    0.00127    0.00510
        330    54 -103.086338 -103.098466    0.012127  13.528    0.00125    0.00504
        331    54 -103.086272 -103.097407    0.011135  13.528    0.00124    0.00532
        332    54 -103.086223 -103.096912    0.010689  13.528    0.00124    0.00516
        333    54 -103.086183 -103.095180    0.008997  13.528    0.00123    0.00496
        334    53 -103.086148 -103.093863    0.007715  13.528    0.00120    0.00584
        335    54 -103.086107 -103.097200    0.011094  13.528    0.00115    0.00630
        336    54 -103.086060 -103.099210    0.013150  13.528    0.00109    0.00718
        337    60 -103.085956 -103.103567    0.017610  13.528    0.00109    0.00634
        338    54 -103.085838 -103.104179    0.018341  13.528    0.00106    0.00589
        339    54 -103.085689 -103.104481    0.018792  13.528    0.00103    0.00583
        340    54 -103.085541 -103.102690    0.017149  13.528    0.00099    0.00775
        341    55 -103.085386 -103.105318    0.019932  13.528    0.00098    0.00776
        342    49 -103.085227 -103.105692    0.020465  13.528    0.00096    0.00771
        343    56 -103.085061 -103.108932    0.023871  13.528    0.00090    0.00722
        344    49 -103.084880 -103.107372    0.022492  13.528    0.00082    0.00705
        345    55 -103.084706 -103.106636    0.021930  13.528    0.00074    0.00692
        346    49 -103.084551 -103.103311    0.018760  13.528    0.00069    0.00652
        347    49 -103.084423 -103.099968    0.015545  13.528    0.00068    0.00574
        348    53 -103.084323 -103.096593    0.012270  13.528    0.00068    0.00473
        349    53 -103.084247 -103.093879    0.009632  13.528    0.00068    0.00387
        350    54 -103.084193 -103.090389    0.006196  13.528    0.00068    0.00327
        351    56 -103.084162 -103.086315    0.002153  13.528    0.00067    0.00297
        352    55 -103.084158 -103.081768    0.002390  13.528    0.00065    0.00302
        353    56 -103.084186 -103.077096    0.007090  13.528    0.00063    0.00324
        354    55 -103.084247 -103.072472    0.011775  13.528    0.00061    0.00347
        355    53 -103.084337 -103.068303    0.016033  13.528    0.00060    0.00368
        356    55 -103.084451 -103.065097    0.019354  13.528    0.00060    0.00382
        357    55 -103.084583 -103.062470    0.022113  13.528    0.00060    0.00392
        358    56 -103.084724 -103.061132    0.023591  13.528    0.00061    0.00395
        359    53 -103.084863 -103.060638    0.024226  13.528    0.00061    0.00390
        360    55 -103.084992 -103.061070    0.023923  13.528    0.00060    0.00385
        361    53 -103.085109 -103.062849    0.022261  13.528    0.00057    0.00435
        362    49 -103.085231 -103.067051    0.018180  13.528    0.00053    0.00400
        363    49 -103.085300 -103.070102    0.015198  13.528    0.00053    0.00347
        364    47 -103.085339 -103.074359    0.010980  13.528    0.00053    0.00304
        365    49 -103.085257 -103.078006    0.007251  13.528    0.00051    0.00309
        366    49 -103.085256 -103.082405    0.002851  13.528    0.00050    0.00280
        367    49 -103.085189 -103.085472    0.000283  13.528    0.00049    0.00268
        368    49 -103.085144 -103.088448    0.003305  13.528    0.00048    0.00260
        369    55 -103.085068 -103.090605    0.005538  13.528    0.00048    0.00252
        370    49 -103.084997 -103.092531    0.007534  13.528    0.00047    0.00247
        371    55 -103.084920 -103.094185    0.009264  13.528    0.00047    0.00247
        372    55 -103.084852 -103.095703    0.010851  13.528    0.00046    0.00249
        373    56 -103.084786 -103.096884    0.012098  13.528    0.00045    0.00252
        374    49 -103.084726 -103.097682    0.012956  13.528    0.00045    0.00257
        375    54 -103.084667 -103.098051    0.013384  13.528    0.00044    0.00264
        376    55 -103.084612 -103.097992    0.013380  13.528    0.00043    0.00270
        377    54 -103.084559 -103.097582    0.013024  13.528    0.00042    0.00273
        378    54 -103.084508 -103.096889    0.012381  13.528    0.00042    0.00272
        379    53 -103.084460 -103.096010    0.011551  13.528    0.00041    0.00265
        380    53 -103.084416 -103.095012    0.010596  13.528    0.00040    0.00253
        381    53 -103.084377 -103.094214    0.009837  13.528    0.00040    0.00236
        382    53 -103.084344 -103.093196    0.008852  13.528    0.00040    0.00217
        383    53 -103.084316 -103.092108    0.007792  13.528    0.00040    0.00194
        384    53 -103.084294 -103.090848    0.006554  13.528    0.00041    0.00167
        385    53 -103.084277 -103.089573    0.005296  13.528    0.00041    0.00137
        386    53 -103.084264 -103.088082    0.003818  13.528    0.00041    0.00110
        387    53 -103.084252 -103.086385    0.002133  13.528    0.00041    0.00092
        388    53 -103.084247 -103.084466    0.000220  13.528    0.00041    0.00087
        389    53 -103.084246 -103.082473    0.001773  13.528    0.00040    0.00097
        390    53 -103.084252 -103.080509    0.003743  13.528    0.00040    0.00112
        391    53 -103.084205 -103.078539    0.005666  13.528    0.00034    0.00163
        392    54 -103.084255 -103.077488    0.006767  13.528    0.00034    0.00160
        393    53 -103.084260 -103.076215    0.008045  13.528    0.00031    0.00170
        394    54 -103.084300 -103.075467    0.008834  13.528    0.00031    0.00178
        395    53 -103.084329 -103.074708    0.009621  13.528    0.00030    0.00183
        396    53 -103.084375 -103.074187    0.010188  13.528    0.00030    0.00186
        397    53 -103.084420 -103.073755    0.010665  13.528    0.00030    0.00186
        398    59 -103.084472 -103.073578    0.010894  13.528    0.00030    0.00183
        399    60 -103.084525 -103.073682    0.010843  13.528    0.00031    0.00179

        ==> Orbital Optimization <==

            Jacobi Optimization converged.
            Total energy change: -1.636170e-03

        400    56 -103.086214 -103.452557    0.366342   2.404    0.00031    0.00173
        401    80 -103.052646 -104.002158    0.949512   2.404    0.03108    0.12399
        402    47 -103.022278 -103.846968    0.824690   2.404    0.03762    0.09515
        403    41 -103.005322 -103.651927    0.646605   2.404    0.04016    0.07255
        404    41 -102.990967 -103.453587    0.462620   2.404    0.03753    0.06184
        405    37 -102.991399 -103.316606    0.325207   2.404    0.03613    0.05603
        406    36 -102.993736 -103.161443    0.167707   2.404    0.03288    0.05361
        407    40 -103.004855 -103.028724    0.023868   2.404    0.03266    0.05168
        408    34 -103.013900 -102.933976    0.079924   2.404    0.02879    0.05304
        409    33 -103.027336 -102.883278    0.144058   2.404    0.02673    0.05454
        410    36 -103.034159 -102.847626    0.186533   2.404    0.02413    0.05263
        411    42 -103.039546 -102.878884    0.160661   2.404    0.02352    0.04775
        412    41 -103.047380 -102.895189    0.152191   2.404    0.02032    0.04560
        413    37 -103.053850 -102.873118    0.180733   2.404    0.01892    0.04098
        414    37 -103.060283 -102.832516    0.227768   2.404    0.01613    0.03889
        415    41 -103.065989 -102.797285    0.268704   2.404    0.01146    0.04289
        416    37 -103.074692 -102.776369    0.298323   2.404    0.00781    0.04496
        417    37 -103.083382 -102.762874    0.320508   2.404    0.00584    0.04551
        418    41 -103.090674 -102.768445    0.322229   2.404    0.00624    0.04268
        419    42 -103.096331 -102.788934    0.307397   2.404    0.00856    0.03889
        420    42 -103.104321 -102.833284    0.271037   2.404    0.00958    0.03562
        421    40 -103.109555 -102.872709    0.236847   2.404    0.01185    0.02941
        422    41 -103.112184 -102.926856    0.185328   2.404    0.01424    0.02284
        423    41 -103.113887 -102.988405    0.125482   2.404    0.01614    0.01628
        424    40 -103.114468 -103.051871    0.062597   2.404    0.01679    0.00961
        425    42 -103.113902 -103.110919    0.002983   2.404    0.01576    0.00778
        426    47 -103.109913 -103.163464    0.053551   2.404    0.01485    0.01280
        427    41 -103.107187 -103.210582    0.103395   2.404    0.01185    0.01748
        428    41 -103.102731 -103.243947    0.141216   2.404    0.00916    0.02187
        429    41 -103.099429 -103.268184    0.168755   2.404    0.00548    0.02449
        430    37 -103.095694 -103.278957    0.183264   2.404    0.00398    0.02544
        431    40 -103.092283 -103.274865    0.182582   2.404    0.00610    0.02475
        432    40 -103.088877 -103.257483    0.168606   2.404    0.00878    0.02259
        433    41 -103.085463 -103.230551    0.145088   2.404    0.01034    0.01972
        434    42 -103.083623 -103.200699    0.117076   2.404    0.01194    0.01619
        435    41 -103.082246 -103.164310    0.082064   2.404    0.01252    0.01256
        436    39 -103.081628 -103.129020    0.047392   2.404    0.01246    0.00922
        437    42 -103.080945 -103.096928    0.015983   2.404    0.01148    0.00711
        438    42 -103.080254 -103.071043    0.009211   2.404    0.00970    0.00692
        439    41 -103.080371 -103.045188    0.035183   2.404    0.00799    0.00835
        440    41 -103.081523 -103.022007    0.059516   2.404    0.00655    0.01066
        441    42 -103.082489 -103.004342    0.078147   2.404    0.00478    0.01268
        442    46 -103.085158 -102.996111    0.089047   2.404    0.00316    0.01371
        443    42 -103.087395 -102.991600    0.095794   2.404    0.00264    0.01392
        444    42 -103.090487 -102.994059    0.096429   2.404    0.00270    0.01319
        445    38 -103.092851 -102.997415    0.095436   2.404    0.00303    0.01221
        446    38 -103.095123 -103.006601    0.088522   2.404    0.00347    0.01095
        447    42 -103.095296 -103.015377    0.079919   2.404    0.00423    0.00998
        448    40 -103.096601 -103.031427    0.065174   2.404    0.00407    0.00805
        449    42 -103.096661 -103.045507    0.051155   2.404    0.00493    0.00588
        450    41 -103.097426 -103.064799    0.032627   2.404    0.00468    0.00405
        451    42 -103.097419 -103.081865    0.015555   2.404    0.00475    0.00279
        452    42 -103.097014 -103.099267    0.002253   2.404    0.00440    0.00315
        453    42 -103.096292 -103.114600    0.018308   2.404    0.00416    0.00417
        454    41 -103.095025 -103.125603    0.030578   2.404    0.00345    0.00544
        455    41 -103.094014 -103.133484    0.039470   2.404    0.00300    0.00635
        456    35 -103.092739 -103.137700    0.044960   2.404    0.00249    0.00707
        457    35 -103.090998 -103.140316    0.049318   2.404    0.00191    0.00758
        458    37 -103.089935 -103.141803    0.051867   2.404    0.00174    0.00783
        459    41 -103.088514 -103.142776    0.054262   2.404    0.00199    0.00750
        460    42 -103.086998 -103.139751    0.052753   2.404    0.00195    0.00712
        461    46 -103.085468 -103.135953    0.050484   2.404    0.00180    0.00657
        462    47 -103.084684 -103.129596    0.044912   2.404    0.00217    0.00571
        463    47 -103.083853 -103.121357    0.037504   2.404    0.00242    0.00479
        464    41 -103.083355 -103.112464    0.029109   2.404    0.00259    0.00402
        465    41 -103.082974 -103.104458    0.021483   2.404    0.00263    0.00316
        466    42 -103.082866 -103.094517    0.011651   2.404    0.00266    0.00259
        467    41 -103.082919 -103.085400    0.002481   2.404    0.00260    0.00255
        468    41 -103.083199 -103.077199    0.006001   2.404    0.00250    0.00277
        469    40 -103.083665 -103.070605    0.013059   2.404    0.00240    0.00330
        470    38 -103.084290 -103.066346    0.017944   2.404    0.00233    0.00338
        471    41 -103.084992 -103.061659    0.023332   2.404    0.00219    0.00359
        472    37 -103.085533 -103.058420    0.027112   2.404    0.00160    0.00413
        473    37 -103.086250 -103.057294    0.028956   2.404    0.00129    0.00440
        474    38 -103.087015 -103.057238    0.029777   2.404    0.00106    0.00448
        475    38 -103.087639 -103.058377    0.029262   2.404    0.00102    0.00432
        476    38 -103.088231 -103.060493    0.027739   2.404    0.00110    0.00395
        477    38 -103.088700 -103.063170    0.025530   2.404    0.00123    0.00345
        478    38 -103.089105 -103.066325    0.022780   2.404    0.00131    0.00307
        479    37 -103.089391 -103.070628    0.018763   2.404    0.00133    0.00268
        480    37 -103.089567 -103.074014    0.015552   2.404    0.00138    0.00237
        481    42 -103.089677 -103.077698    0.011979   2.404    0.00146    0.00204
        482    42 -103.089723 -103.080970    0.008753   2.404    0.00153    0.00171
        483    42 -103.089658 -103.084371    0.005287   2.404    0.00155    0.00144
        484    38 -103.089519 -103.088179    0.001340   2.404    0.00154    0.00183
        485    36 -103.089307 -103.092697    0.003390   2.404    0.00150    0.00170
        486    40 -103.089007 -103.096176    0.007169   2.404    0.00140    0.00163
        487    40 -103.088690 -103.099052    0.010362   2.404    0.00125    0.00178
        488    36 -103.088339 -103.101203    0.012864   2.404    0.00110    0.00199
        489    38 -103.087983 -103.102800    0.014816   2.404    0.00101    0.00212
        490    38 -103.087607 -103.103418    0.015811   2.404    0.00094    0.00222
        491    38 -103.087225 -103.103361    0.016136   2.404    0.00089    0.00228
        492    38 -103.086851 -103.102699    0.015848   2.404    0.00084    0.00229
        493    38 -103.086508 -103.101675    0.015167   2.404    0.00077    0.00230
        494    39 -103.086207 -103.100707    0.014500   2.404    0.00074    0.00227
        495    41 -103.085953 -103.099252    0.013299   2.404    0.00073    0.00220
        496    42 -103.085749 -103.097870    0.012121   2.404    0.00076    0.00209
        497    42 -103.085593 -103.096305    0.010712   2.404    0.00082    0.00192
        498    41 -103.085465 -103.094748    0.009283   2.404    0.00089    0.00170
        499    40 -103.085361 -103.093131    0.007770   2.404    0.00096    0.00143
        500    40 -103.085280 -103.091665    0.006385   2.404    0.00102    0.00110
        501    41 -103.085202 -103.090206    0.005004   2.404    0.00105    0.00074
        502    47 -103.085090 -103.088651    0.003561   2.404    0.00098    0.00055
        503    47 -103.085105 -103.087098    0.001993   2.404    0.00096    0.00057
        504    45 -103.085170 -103.085333    0.000162   2.404    0.00092    0.00079
        505    41 -103.085178 -103.083474    0.001704   2.404    0.00075    0.00109
        506    40 -103.085287 -103.082172    0.003115   2.404    0.00063    0.00135
        507    41 -103.085471 -103.081056    0.004415   2.404    0.00061    0.00140
        508    37 -103.085641 -103.079684    0.005957   2.404    0.00064    0.00134
        509    37 -103.085839 -103.078659    0.007180   2.404    0.00064    0.00131
        510    33 -103.085870 -103.077787    0.008083   2.404    0.00049    0.00141
        511    42 -103.086132 -103.077593    0.008539   2.404    0.00045    0.00137
        512    38 -103.086299 -103.077044    0.009255   2.404    0.00042    0.00134
        513    42 -103.086549 -103.077012    0.009537   2.404    0.00044    0.00130
        514    42 -103.086748 -103.077068    0.009679   2.404    0.00049    0.00123
        515    42 -103.086961 -103.077656    0.009305   2.404    0.00055    0.00112
        516    41 -103.087144 -103.078559    0.008585   2.404    0.00061    0.00099
        517    41 -103.087314 -103.079841    0.007473   2.404    0.00065    0.00085
        518    41 -103.087447 -103.081312    0.006135   2.404    0.00067    0.00070
        519    41 -103.087539 -103.082904    0.004635   2.404    0.00067    0.00054
        520    41 -103.087580 -103.084479    0.003101   2.404    0.00066    0.00042
        521    42 -103.087573 -103.085992    0.001581   2.404    0.00064    0.00042
        522    42 -103.087517 -103.087491    0.000027   2.404    0.00061    0.00044
        523    42 -103.087415 -103.088616    0.001201   2.404    0.00058    0.00051
        524    41 -103.087287 -103.089654    0.002367   2.404    0.00054    0.00060
        525    39 -103.087138 -103.090426    0.003288   2.404    0.00051    0.00069
        526    39 -103.086989 -103.091020    0.004030   2.404    0.00047    0.00076
        527    42 -103.086828 -103.091389    0.004561   2.404    0.00043    0.00083
        528    42 -103.086669 -103.091609    0.004941   2.404    0.00040    0.00087
        529    42 -103.086533 -103.091658    0.005124   2.404    0.00039    0.00090
        530    42 -103.086401 -103.091515    0.005114   2.404    0.00038    0.00092
        531    42 -103.086288 -103.091250    0.004961   2.404    0.00038    0.00091
        532    42 -103.086188 -103.090877    0.004689   2.404    0.00039    0.00089
        533    42 -103.086106 -103.090448    0.004342   2.404    0.00040    0.00085
        534    47 -103.086038 -103.089988    0.003950   2.404    0.00041    0.00080
        535    42 -103.085982 -103.089530    0.003548   2.404    0.00042    0.00073
        536    42 -103.085937 -103.089073    0.003136   2.404    0.00044    0.00065
        537    42 -103.085900 -103.088634    0.002734   2.404    0.00046    0.00057
        538    42 -103.085872 -103.088197    0.002325   2.404    0.00047    0.00048
        539    42 -103.085783 -103.087756    0.001973   2.404    0.00050    0.00047
        540    42 -103.085789 -103.087473    0.001684   2.404    0.00048    0.00039
        541    42 -103.085747 -103.086951    0.001204   2.404    0.00051    0.00035
        542    42 -103.085748 -103.086478    0.000729   2.404    0.00050    0.00034
        543    42 -103.085740 -103.085899    0.000159   2.404    0.00050    0.00034
        544    42 -103.085760 -103.085304    0.000456   2.404    0.00048    0.00037
        545    42 -103.085788 -103.084666    0.001122   2.404    0.00046    0.00041
        546    42 -103.085840 -103.084055    0.001785   2.404    0.00042    0.00047
        547    42 -103.085906 -103.083477    0.002428   2.404    0.00039    0.00052
        548    42 -103.085989 -103.082976    0.003013   2.404    0.00036    0.00056
        549    42 -103.086084 -103.082569    0.003516   2.404    0.00033    0.00058
        550    42 -103.086189 -103.082282    0.003907   2.404    0.00032    0.00060
        551    42 -103.086297 -103.082191    0.004106   2.404    0.00032    0.00061
        552    42 -103.086401 -103.082216    0.004185   2.404    0.00032    0.00060
        553    41 -103.086496 -103.082322    0.004174   2.404    0.00033    0.00058
        554    41 -103.086583 -103.082565    0.004018   2.404    0.00034    0.00054
        555    42 -103.086660 -103.082899    0.003761   2.404    0.00036    0.00050
        556    42 -103.086726 -103.083325    0.003401   2.404    0.00037    0.00044
        557    42 -103.086778 -103.083816    0.002962   2.404    0.00038    0.00037
        558    42 -103.086815 -103.084358    0.002456   2.404    0.00039    0.00031
        559    42 -103.086836 -103.084929    0.001907   2.404    0.00039    0.00024
        560    47 -103.086841 -103.085510    0.001331   2.404    0.00039    0.00018
        561    47 -103.086832 -103.086070    0.000762   2.404    0.00039    0.00014
        562    49 -103.086811 -103.086602    0.000208   2.404    0.00038    0.00015
        563    47 -103.086780 -103.087084    0.000305   2.404    0.00037    0.00018
        564    47 -103.086741 -103.087513    0.000772   2.404    0.00036    0.00023
        565    47 -103.086696 -103.087878    0.001182   2.404    0.00035    0.00028
        566    42 -103.086645 -103.088176    0.001530   2.404    0.00034    0.00032
        567    42 -103.086591 -103.088421    0.001829   2.404    0.00033    0.00036
        568    42 -103.086535 -103.088597    0.002062   2.404    0.00032    0.00039
        569    42 -103.086476 -103.088720    0.002244   2.404    0.00031    0.00041
        570    45 -103.086416 -103.088785    0.002369   2.404    0.00031    0.00042
        571    42 -103.086357 -103.088790    0.002433   2.404    0.00030    0.00043
        572    42 -103.086299 -103.088749    0.002450   2.404    0.00031    0.00042
        573    42 -103.086243 -103.088654    0.002412   2.404    0.00031    0.00041
        574    42 -103.086190 -103.088516    0.002325   2.404    0.00032    0.00039
        575    42 -103.086143 -103.088334    0.002192   2.404    0.00032    0.00036
        576    42 -103.086100 -103.088116    0.002016   2.404    0.00033    0.00032
        577    42 -103.086064 -103.087865    0.001801   2.404    0.00034    0.00028
        578    42 -103.086035 -103.087586    0.001551   2.404    0.00034    0.00023
        579    47 -103.086013 -103.087284    0.001271   2.404    0.00034    0.00019
        580    47 -103.085998 -103.086963    0.000966   2.404    0.00034    0.00014
        581    47 -103.085991 -103.086629    0.000638   2.404    0.00034    0.00011
        582    51 -103.085992 -103.086288    0.000296   2.404    0.00033    0.00010
        583    52 -103.086002 -103.085948    0.000054   2.404    0.00033    0.00012
        584    51 -103.086019 -103.085614    0.000405   2.404    0.00032    0.00015
        585    47 -103.086043 -103.085297    0.000746   2.404    0.00031    0.00019
        586    47 -103.086075 -103.085003    0.001071   2.404    0.00030    0.00022
        587    47 -103.086112 -103.084743    0.001370   2.404    0.00030    0.00025
        588    42 -103.086155 -103.084521    0.001634   2.404    0.00029    0.00028
        589    42 -103.086202 -103.084345    0.001857   2.404    0.00029    0.00030
        590    42 -103.086252 -103.084221    0.002031   2.404    0.00029    0.00031
        591    42 -103.086303 -103.084150    0.002152   2.404    0.00029    0.00031
        592    42 -103.086353 -103.084136    0.002217   2.404    0.00029    0.00031
        593    42 -103.086402 -103.084178    0.002224   2.404    0.00029    0.00030
        594    42 -103.086448 -103.084273    0.002175   2.404    0.00029    0.00028
        595    42 -103.086489 -103.084417    0.002072   2.404    0.00030    0.00026
        596    42 -103.086525 -103.084606    0.001919   2.404    0.00030    0.00024
        597    47 -103.086555 -103.084836    0.001718   2.404    0.00031    0.00021
        598    47 -103.086578 -103.085088    0.001489   2.404    0.00031    0.00018
        599    47 -103.086593 -103.085367    0.001227   2.404    0.00031    0.00014

        ==> Orbital Optimization <==

            Jacobi Optimization converged.
            Total energy change: -6.811497e-05

        600    47 -103.086670 -103.320888    0.234218   6.488    0.00031    0.00012
        601    79 -103.084067 -103.317335    0.233268   6.488    0.00525    0.03971
        602    56 -103.081630 -103.262561    0.180931   6.488    0.00632    0.02732
        603    54 -103.079755 -103.203351    0.123596   6.488    0.00541    0.02240
        604    46 -103.078699 -103.150842    0.072142   6.488    0.00444    0.01906
        605    41 -103.078506 -103.113403    0.034898   6.488    0.00417    0.01551
        606    41 -103.078900 -103.086237    0.007336   6.488    0.00398    0.01346
        607    41 -103.079744 -103.066307    0.013437   6.488    0.00352    0.01450
        608    38 -103.080822 -103.049437    0.031386   6.488    0.00307    0.01645
        609    37 -103.081776 -103.034823    0.046952   6.488    0.00290    0.01703
        610    47 -103.082524 -103.027434    0.055090   6.488    0.00268    0.01668
        611    47 -103.083409 -103.026575    0.056833   6.488    0.00241    0.01666
        612    42 -103.084400 -103.025572    0.058828   6.488    0.00206    0.01665
        613    46 -103.085430 -103.024402    0.061028   6.488    0.00187    0.01596
        614    43 -103.086376 -103.023814    0.062563   6.488    0.00200    0.01436
        615    42 -103.087102 -103.025826    0.061276   6.488    0.00220    0.01201
        616    48 -103.087361 -103.029863    0.057498   6.488    0.00247    0.01018
        617    42 -103.087950 -103.037996    0.049955   6.488    0.00219    0.00941
        618    47 -103.088270 -103.045029    0.043241   6.488    0.00201    0.00940
        619    42 -103.088550 -103.052924    0.035625   6.488    0.00166    0.01025
        620    42 -103.088643 -103.060177    0.028466   6.488    0.00151    0.01050
        621    47 -103.088725 -103.064479    0.024246   6.488    0.00147    0.01017
        622    47 -103.088682 -103.069291    0.019391   6.488    0.00143    0.00943
        623    49 -103.088575 -103.072391    0.016184   6.488    0.00141    0.00841
        624    48 -103.088121 -103.076055    0.012066   6.488    0.00129    0.00733
        625    53 -103.088110 -103.080891    0.007219   6.488    0.00134    0.00599
        626    53 -103.087908 -103.085456    0.002452   6.488    0.00136    0.00489
        627    47 -103.087915 -103.091620    0.003706   6.488    0.00123    0.00429
        628    42 -103.087792 -103.096383    0.008591   6.488    0.00116    0.00453
        629    47 -103.087729 -103.102561    0.014832   6.488    0.00109    0.00426
        630    43 -103.087606 -103.104398    0.016792   6.488    0.00103    0.00449
        631    47 -103.087495 -103.107010    0.019515   6.488    0.00094    0.00501
        632    47 -103.087353 -103.107978    0.020624   6.488    0.00085    0.00548
        633    47 -103.087214 -103.109367    0.022153   6.488    0.00073    0.00581
        634    48 -103.087085 -103.111054    0.023969   6.488    0.00062    0.00582
        635    47 -103.086930 -103.112412    0.025481   6.488    0.00053    0.00567
        636    48 -103.086756 -103.113739    0.026983   6.488    0.00048    0.00541
        637    47 -103.086552 -103.114597    0.028044   6.488    0.00049    0.00510
        638    47 -103.086330 -103.114980    0.028650   6.488    0.00056    0.00478
        639    42 -103.086097 -103.114536    0.028438   6.488    0.00064    0.00446
        640    42 -103.085867 -103.113325    0.027458   6.488    0.00073    0.00414
        641    43 -103.085647 -103.111311    0.025664   6.488    0.00079    0.00382
        642    42 -103.085447 -103.108581    0.023135   6.488    0.00083    0.00350
        643    42 -103.085271 -103.105211    0.019940   6.488    0.00085    0.00313
        644    42 -103.085128 -103.101542    0.016415   6.488    0.00084    0.00270
        645    42 -103.085018 -103.097322    0.012304   6.488    0.00081    0.00228
        646    47 -103.084934 -103.092611    0.007677   6.488    0.00078    0.00193
        647    47 -103.084906 -103.087710    0.002803   6.488    0.00073    0.00171
        648    47 -103.084923 -103.082718    0.002205   6.488    0.00068    0.00168
        649    47 -103.084997 -103.077890    0.007107   6.488    0.00062    0.00186
        650    47 -103.085119 -103.073373    0.011746   6.488    0.00057    0.00218
        651    47 -103.085288 -103.069368    0.015920   6.488    0.00051    0.00255
        652    47 -103.085495 -103.066028    0.019467   6.488    0.00045    0.00288
        653    47 -103.085728 -103.063479    0.022249   6.488    0.00041    0.00314
        654    47 -103.085978 -103.061803    0.024176   6.488    0.00037    0.00330
        655    47 -103.086233 -103.061038    0.025195   6.488    0.00036    0.00336
        656    47 -103.086483 -103.061182    0.025300   6.488    0.00037    0.00332
        657    49 -103.086716 -103.062194    0.024522   6.488    0.00039    0.00320
        658    49 -103.086926 -103.063995    0.022931   6.488    0.00041    0.00305
        659    48 -103.087100 -103.066799    0.020301   6.488    0.00044    0.00281
        660    48 -103.087233 -103.069795    0.017438   6.488    0.00046    0.00258
        661    49 -103.087325 -103.073081    0.014244   6.488    0.00047    0.00234
        662    49 -103.087379 -103.076509    0.010870   6.488    0.00047    0.00213
        663    47 -103.087398 -103.079933    0.007466   6.488    0.00046    0.00194
        664    47 -103.087385 -103.083198    0.004187   6.488    0.00045    0.00178
        665    47 -103.087344 -103.086196    0.001148   6.488    0.00044    0.00165
        666    47 -103.087278 -103.088852    0.001573   6.488    0.00043    0.00156
        667    47 -103.087195 -103.091126    0.003931   6.488    0.00043    0.00150
        668    47 -103.087100 -103.093004    0.005904   6.488    0.00042    0.00149
        669    47 -103.086997 -103.094490    0.007493   6.488    0.00042    0.00151
        670    47 -103.086892 -103.095610    0.008717   6.488    0.00042    0.00157
        671    49 -103.086789 -103.096398    0.009610   6.488    0.00042    0.00164
        672    49 -103.086689 -103.096900    0.010211   6.488    0.00041    0.00171
        673    49 -103.086594 -103.097156    0.010562   6.488    0.00040    0.00177
        674    48 -103.086506 -103.097203    0.010697   6.488    0.00039    0.00183
        675    49 -103.086425 -103.097069    0.010644   6.488    0.00038    0.00187
        676    49 -103.086352 -103.096772    0.010420   6.488    0.00036    0.00191
        677    48 -103.086287 -103.096324    0.010037   6.488    0.00034    0.00195
        678    47 -103.086229 -103.095733    0.009504   6.488    0.00033    0.00197
        679    47 -103.086180 -103.095007    0.008826   6.488    0.00033    0.00197
        680    47 -103.086140 -103.094156    0.008016   6.488    0.00033    0.00195
        681    48 -103.086108 -103.093199    0.007091   6.488    0.00034    0.00189
        682    48 -103.086085 -103.092151    0.006066   6.488    0.00035    0.00179
        683    48 -103.086070 -103.091041    0.004971   6.488    0.00037    0.00167
        684    48 -103.086063 -103.089897    0.003835   6.488    0.00038    0.00152
        685    48 -103.086063 -103.088752    0.002689   6.488    0.00040    0.00135
        686    49 -103.086070 -103.087633    0.001564   6.488    0.00040    0.00118
        687    49 -103.086082 -103.086570    0.000488   6.488    0.00040    0.00102
        688    47 -103.086098 -103.085615    0.000483   6.488    0.00040    0.00086
        689    48 -103.086115 -103.084798    0.001317   6.488    0.00038    0.00075
        690    47 -103.086134 -103.084062    0.002072   6.488    0.00036    0.00073
        691    47 -103.086155 -103.083402    0.002753   6.488    0.00034    0.00080
        692    52 -103.086178 -103.082814    0.003364   6.488    0.00032    0.00090
        693    52 -103.086205 -103.082304    0.003900   6.488    0.00029    0.00101
        694    52 -103.086233 -103.081870    0.004363   6.488    0.00027    0.00111
        695    47 -103.086263 -103.081513    0.004750   6.488    0.00025    0.00120
        696    52 -103.086297 -103.081220    0.005077   6.488    0.00023    0.00126
        697    52 -103.086331 -103.080994    0.005337   6.488    0.00022    0.00129
        698    53 -103.086368 -103.080823    0.005545   6.488    0.00021    0.00130
        699    52 -103.086407 -103.080707    0.005700   6.488    0.00021    0.00128
        700    52 -103.086447 -103.080649    0.005798   6.488    0.00021    0.00126
        701    52 -103.086484 -103.080786    0.005698   6.488    0.00021    0.00122
        702    52 -103.086521 -103.080954    0.005568   6.488    0.00022    0.00119
        703    48 -103.086559 -103.081188    0.005371   6.488    0.00022    0.00113
        704    48 -103.086596 -103.081533    0.005063   6.488    0.00022    0.00106
        705    48 -103.086630 -103.081985    0.004645   6.488    0.00023    0.00097
        706    48 -103.086661 -103.082564    0.004097   6.488    0.00023    0.00086
        707    48 -103.086687 -103.083253    0.003434   6.488    0.00023    0.00075
        708    48 -103.086707 -103.084043    0.002665   6.488    0.00023    0.00063
        709    48 -103.086720 -103.084904    0.001816   6.488    0.00023    0.00053
        710    48 -103.086725 -103.085808    0.000917   6.488    0.00024    0.00044
        711    48 -103.086721 -103.086717    0.000004   6.488    0.00024    0.00039
        712    48 -103.086709 -103.087596    0.000886   6.488    0.00024    0.00038
        713    48 -103.086689 -103.088410    0.001721   6.488    0.00024    0.00042
        714    48 -103.086662 -103.089133    0.002471   6.488    0.00023    0.00050
        715    48 -103.086629 -103.089745    0.003115   6.488    0.00023    0.00058
        716    48 -103.086593 -103.090231    0.003638   6.488    0.00022    0.00067
        717    49 -103.086554 -103.090587    0.004033   6.488    0.00022    0.00074
        718    49 -103.086514 -103.090810    0.004297   6.488    0.00021    0.00080
        719    49 -103.086474 -103.090905    0.004431   6.488    0.00021    0.00085
        720    52 -103.086436 -103.090879    0.004443   6.488    0.00020    0.00087
        721    53 -103.086400 -103.090741    0.004340   6.488    0.00020    0.00088
        722    52 -103.086368 -103.090504    0.004136   6.488    0.00020    0.00087
        723    53 -103.086340 -103.090182    0.003842   6.488    0.00020    0.00085
        724    52 -103.086316 -103.089789    0.003474   6.488    0.00020    0.00082
        725    53 -103.086296 -103.089342    0.003046   6.488    0.00020    0.00077
        726    53 -103.086281 -103.088855    0.002574   6.488    0.00020    0.00070
        727    53 -103.086271 -103.088344    0.002073   6.488    0.00020    0.00063
        728    52 -103.086265 -103.087823    0.001559   6.488    0.00021    0.00054
        729    53 -103.086263 -103.087305    0.001042   6.488    0.00021    0.00046
        730    53 -103.086264 -103.086802    0.000538   6.488    0.00021    0.00037
        731    52 -103.086269 -103.086324    0.000055   6.488    0.00021    0.00029
        732    52 -103.086277 -103.085877    0.000400   6.488    0.00021    0.00024
        733    52 -103.086287 -103.085471    0.000816   6.488    0.00021    0.00023
        734    52 -103.086300 -103.085105    0.001196   6.488    0.00021    0.00026
        735    52 -103.086314 -103.084786    0.001527   6.488    0.00020    0.00032
        736    52 -103.086329 -103.084512    0.001817   6.488    0.00020    0.00040
        737    52 -103.086345 -103.084286    0.002059   6.488    0.00019    0.00046
        738    53 -103.086361 -103.084105    0.002256   6.488    0.00019    0.00053
        739    52 -103.086377 -103.083970    0.002408   6.488    0.00018    0.00058
        740    53 -103.086394 -103.083878    0.002517   6.488    0.00018    0.00062
        741    52 -103.086410 -103.083830    0.002581   6.488    0.00017    0.00065
        742    52 -103.086427 -103.083822    0.002604   6.488    0.00017    0.00066
        743    52 -103.086442 -103.083855    0.002587   6.488    0.00017    0.00067
        744    52 -103.086457 -103.083925    0.002532   6.488    0.00017    0.00065
        745    59 -103.086471 -103.084033    0.002438   6.488    0.00017    0.00063
        746    55 -103.086484 -103.084171    0.002313   6.488    0.00018    0.00059
        747    55 -103.086496 -103.084343    0.002152   6.488    0.00018    0.00054
        748    54 -103.086507 -103.084541    0.001966   6.488    0.00019    0.00048
        749    49 -103.086516 -103.084762    0.001754   6.488    0.00019    0.00041
        750    48 -103.086524 -103.085005    0.001519   6.488    0.00019    0.00035
        751    49 -103.086530 -103.085261    0.001269   6.488    0.00019    0.00028
        752    48 -103.086535 -103.085530    0.001005   6.488    0.00019    0.00021
        753    52 -103.086538 -103.085805    0.000732   6.488    0.00019    0.00017
        754    54 -103.086539 -103.086082    0.000458   6.488    0.00019    0.00016
        755    55 -103.086539 -103.086357    0.000182   6.488    0.00019    0.00019
        756    53 -103.086536 -103.086626    0.000089   6.488    0.00019    0.00023
        757    48 -103.086532 -103.086885    0.000352   6.488    0.00019    0.00029
        758    54 -103.086527 -103.087134    0.000608   6.488    0.00018    0.00034
        759    52 -103.086519 -103.087362    0.000843   6.488    0.00018    0.00038
        760    54 -103.086510 -103.087573    0.001063   6.488    0.00017    0.00042
        761    55 -103.086499 -103.087758    0.001259   6.488    0.00017    0.00045
        762    55 -103.086488 -103.087918    0.001431   6.488    0.00017    0.00047
        763    55 -103.086475 -103.088046    0.001572   6.488    0.00017    0.00048
        764    55 -103.086461 -103.088141    0.001681   6.488    0.00017    0.00048
        765    60 -103.086446 -103.088199    0.001753   6.488    0.00016    0.00047
        766    59 -103.086431 -103.088218    0.001787   6.488    0.00016    0.00045
        767    52 -103.086417 -103.088197    0.001780   6.488    0.00017    0.00042
        768    59 -103.086402 -103.088133    0.001731   6.488    0.00017    0.00039
        769    59 -103.086389 -103.088030    0.001641   6.488    0.00017    0.00035
        770    59 -103.086376 -103.087886    0.001510   6.488    0.00017    0.00030
        771    55 -103.086365 -103.087707    0.001343   6.488    0.00017    0.00026
        772    53 -103.086355 -103.087495    0.001140   6.488    0.00017    0.00021
        773    53 -103.086347 -103.087257    0.000910   6.488    0.00017    0.00018
        774    55 -103.086342 -103.086998    0.000656   6.488    0.00017    0.00015
        775    59 -103.086338 -103.086725    0.000386   6.488    0.00017    0.00015
        776    53 -103.086337 -103.086446    0.000109   6.488    0.00017    0.00016
        777    53 -103.086338 -103.086166    0.000172   6.488    0.00017    0.00019
        778    52 -103.086342 -103.085897    0.000445   6.488    0.00017    0.00023
        779    52 -103.086347 -103.085641    0.000705   6.488    0.00017    0.00026
        780    52 -103.086354 -103.085407    0.000947   6.488    0.00017    0.00029
        781    58 -103.086363 -103.085199    0.001164   6.488    0.00017    0.00031
        782    59 -103.086373 -103.085021    0.001352   6.488    0.00016    0.00033
        783    59 -103.086384 -103.084875    0.001509   6.488    0.00016    0.00035
        784    53 -103.086396 -103.084766    0.001629   6.488    0.00016    0.00035
        785    59 -103.086408 -103.084694    0.001715   6.488    0.00016    0.00036
        786    59 -103.086421 -103.084658    0.001763   6.488    0.00016    0.00035
        787    52 -103.086433 -103.084657    0.001776   6.488    0.00016    0.00034
        788    59 -103.086445 -103.084693    0.001752   6.488    0.00016    0.00032
        789    58 -103.086456 -103.084758    0.001698   6.488    0.00016    0.00030
        790    55 -103.086466 -103.084856    0.001610   6.488    0.00016    0.00027
        791    55 -103.086475 -103.084979    0.001496   6.488    0.00016    0.00025
        792    53 -103.086483 -103.085127    0.001356   6.488    0.00016    0.00022
        793    55 -103.086490 -103.085295    0.001195   6.488    0.00016    0.00019
        794    54 -103.086495 -103.085478    0.001017   6.488    0.00016    0.00017
        795    55 -103.086499 -103.085674    0.000825   6.488    0.00016    0.00015
        796    54 -103.086501 -103.085877    0.000624   6.488    0.00016    0.00015
        797    59 -103.086502 -103.086085    0.000417   6.488    0.00016    0.00015
        798    55 -103.086501 -103.086290    0.000211   6.488    0.00016    0.00016
        799    54 -103.086498 -103.086492    0.000006   6.488    0.00016    0.00018

        ==> Orbital Optimization <==

            Jacobi Optimization converged.
            Total energy change: -1.475148e-05

        800    59 -103.086509 -103.203374    0.116864   5.329    0.00016    0.00019
        801    76 -103.085426 -103.188020    0.102594   5.329    0.00361    0.02014
        802    54 -103.084071 -103.162440    0.078369   5.329    0.00419    0.01341
        803    50 -103.082973 -103.135609    0.052635   5.329    0.00356    0.01093
        804    42 -103.082400 -103.111849    0.029449   5.329    0.00290    0.00900
        805    38 -103.082265 -103.094089    0.011824   5.329    0.00259    0.00744
        806    41 -103.082432 -103.081497    0.000935   5.329    0.00240    0.00684
        807    38 -103.082790 -103.072636    0.010154   5.329    0.00219    0.00721
        808    38 -103.083297 -103.066076    0.017221   5.329    0.00204    0.00768
        809    42 -103.083814 -103.061475    0.022340   5.329    0.00174    0.00806
        810    42 -103.084433 -103.058933    0.025500   5.329    0.00152    0.00835
        811    41 -103.085065 -103.056479    0.028586   5.329    0.00129    0.00850
        812    38 -103.085714 -103.054457    0.031257   5.329    0.00112    0.00847
        813    38 -103.086354 -103.053289    0.033065   5.329    0.00109    0.00813
        814    42 -103.086707 -103.053069    0.033638   5.329    0.00109    0.00747
        815    42 -103.087151 -103.055483    0.031668   5.329    0.00118    0.00654
        816    42 -103.087458 -103.058460    0.028998   5.329    0.00128    0.00591
[...]
        853    35 -109.095056 -109.095508    0.000451   1.040    0.00056    0.00025
        854    37 -109.095033 -109.095635    0.000601   1.040    0.00052    0.00027
        855    35 -109.095008 -109.095730    0.000722   1.040    0.00046    0.00029
        856    35 -109.094969 -109.095808    0.000840   1.040    0.00038    0.00031
        857    33 -109.094928 -109.095852    0.000924   1.040    0.00030    0.00033
        858    31 -109.094882 -109.095871    0.000990   1.040    0.00023    0.00033
        859    31 -109.094838 -109.095857    0.001019   1.040    0.00019    0.00032
        860    30 -109.094793 -109.095815    0.001022   1.040    0.00019    0.00031
        861    32 -109.094754 -109.095738    0.000984   1.040    0.00022    0.00028
        862    32 -109.094719 -109.095634    0.000915   1.040    0.00026    0.00025
        863    32 -109.094689 -109.095502    0.000813   1.040    0.00030    0.00022
        864    33 -109.094669 -109.095349    0.000680   1.040    0.00032    0.00018
        865    34 -109.094657 -109.095183    0.000527   1.040    0.00034    0.00015
        866    37 -109.094653 -109.095009    0.000356   1.040    0.00034    0.00013
        867    38 -109.094657 -109.094838    0.000180   1.040    0.00034    0.00013
        868    38 -109.094669 -109.094672    0.000003   1.040    0.00032    0.00014
        869    38 -109.094687 -109.094522    0.000165   1.040    0.00029    0.00016
        870    38 -109.094711 -109.094391    0.000320   1.040    0.00026    0.00018
        871    38 -109.094739 -109.094285    0.000454   1.040    0.00023    0.00020
        872    38 -109.094769 -109.094205    0.000563   1.040    0.00021    0.00021
        873    38 -109.094799 -109.094152    0.000647   1.040    0.00020    0.00022
        874    35 -109.094829 -109.094124    0.000705   1.040    0.00021    0.00021
        875    35 -109.094857 -109.094123    0.000734   1.040    0.00024    0.00021
        876    35 -109.094881 -109.094141    0.000740   1.040    0.00027    0.00019
        877    32 -109.094902 -109.094176    0.000726   1.040    0.00030    0.00018
        878    32 -109.094918 -109.094224    0.000694   1.040    0.00032    0.00016
        879    33 -109.094930 -109.094280    0.000650   1.040    0.00034    0.00014
        880    35 -109.094935 -109.094344    0.000591   1.040    0.00035    0.00012
        881    35 -109.094939 -109.094410    0.000529   1.040    0.00035    0.00011
        882    35 -109.094938 -109.094474    0.000464   1.040    0.00034    0.00011
        883    35 -109.094935 -109.094533    0.000402   1.040    0.00032    0.00012
        884    33 -109.094930 -109.094591    0.000339   1.040    0.00029    0.00012
        885    33 -109.094923 -109.094646    0.000277   1.040    0.00025    0.00013
        886    30 -109.094915 -109.094698    0.000217   1.040    0.00022    0.00014
        887    31 -109.094907 -109.094748    0.000159   1.040    0.00019    0.00015
        888    32 -109.094899 -109.094795    0.000103   1.040    0.00016    0.00015
        889    31 -109.094889 -109.094840    0.000049   1.040    0.00014    0.00015
        890    32 -109.094881 -109.094882    0.000001   1.040    0.00013    0.00014
        891    32 -109.094872 -109.094920    0.000048   1.040    0.00014    0.00013
        892    34 -109.094863 -109.094953    0.000090   1.040    0.00015    0.00012
        893    34 -109.094853 -109.094981    0.000128   1.040    0.00016    0.00011
        894    35 -109.094845 -109.095004    0.000159   1.040    0.00017    0.00010
        895    35 -109.094836 -109.095020    0.000184   1.040    0.00018    0.00009
        896    35 -109.094827 -109.095028    0.000201   1.040    0.00018    0.00009
        897    35 -109.094819 -109.095030    0.000211   1.040    0.00018    0.00009
        898    35 -109.094812 -109.095024    0.000211   1.040    0.00017    0.00010
        899    35 -109.094806 -109.095011    0.000205   1.040    0.00017    0.00010
        900    35 -109.094802 -109.094991    0.000189   1.040    0.00016    0.00010
        901    35 -109.094799 -109.094966    0.000168   1.040    0.00015    0.00011
        902    34 -109.094797 -109.094936    0.000139   1.040    0.00015    0.00011
        903    35 -109.094797 -109.094903    0.000107   1.040    0.00015    0.00011
        904    35 -109.094798 -109.094868    0.000070   1.040    0.00015    0.00011
        905    35 -109.094800 -109.094832    0.000032   1.040    0.00016    0.00010
        906    34 -109.094805 -109.094797    0.000007   1.040    0.00017    0.00010
        907    35 -109.094809 -109.094764    0.000045   1.040    0.00018    0.00009
        908    35 -109.094814 -109.094733    0.000081   1.040    0.00019    0.00008
        909    38 -109.094819 -109.094707    0.000111   1.040    0.00019    0.00008
        910    38 -109.094824 -109.094683    0.000141   1.040    0.00020    0.00007
        911    38 -109.094828 -109.094665    0.000163   1.040    0.00020    0.00007
        912    38 -109.094833 -109.094651    0.000182   1.040    0.00019    0.00007
        913    35 -109.094836 -109.094640    0.000196   1.040    0.00018    0.00007
        914    37 -109.094839 -109.094636    0.000203   1.040    0.00018    0.00007
        915    35 -109.094841 -109.094631    0.000210   1.040    0.00016    0.00008
        916    35 -109.094841 -109.094634    0.000208   1.040    0.00015    0.00008
        917    35 -109.094841 -109.094636    0.000206   1.040    0.00014    0.00008
        918    35 -109.094840 -109.094642    0.000199   1.040    0.00013    0.00008
        919    38 -109.094838 -109.094649    0.000190   1.040    0.00013    0.00008
        920    35 -109.094837 -109.094656    0.000181   1.040    0.00012    0.00008
        921    38 -109.094834 -109.094667    0.000167   1.040    0.00012    0.00008
        922    35 -109.094833 -109.094676    0.000158   1.040    0.00013    0.00007
        923    39 -109.094830 -109.094687    0.000143   1.040    0.00013    0.00006
        924    38 -109.094828 -109.094699    0.000130   1.040    0.00013    0.00006
        925    39 -109.094826 -109.094710    0.000116   1.040    0.00014    0.00005
        926    39 -109.094825 -109.094723    0.000102   1.040    0.00014    0.00005
        927    40 -109.094823 -109.094735    0.000089   1.040    0.00014    0.00004
        928    39 -109.094823 -109.094748    0.000075   1.040    0.00014    0.00004
        929    40 -109.094822 -109.094759    0.000063   1.040    0.00014    0.00005
        930    36 -109.094821 -109.094771    0.000050   1.040    0.00014    0.00005
        931    39 -109.094820 -109.094781    0.000039   1.040    0.00013    0.00005
        932    35 -109.094820 -109.094792    0.000028   1.040    0.00013    0.00006
        933    36 -109.094820 -109.094801    0.000019   1.040    0.00013    0.00006
        934    35 -109.094819 -109.094807    0.000012   1.040    0.00013    0.00006
        935    35 -109.094819 -109.094813    0.000006   1.040    0.00013    0.00006
        936    34 -109.094818 -109.094816    0.000002   1.040    0.00013    0.00006
        937    35 -109.094817 -109.094818    0.000001   1.040    0.00013    0.00006
        938    35 -109.094817 -109.094818    0.000001   1.040    0.00013    0.00006
        939    35 -109.094816 -109.094816    0.000000   1.040    0.00013    0.00005
        940    35 -109.094815 -109.094813    0.000002   1.040    0.00013    0.00005
        941    35 -109.094814 -109.094808    0.000007   1.040    0.00013    0.00005
        942    38 -109.094813 -109.094802    0.000012   1.040    0.00013    0.00005
        943    38 -109.094813 -109.094793    0.000020   1.040    0.00013    0.00005
        944    38 -109.094812 -109.094785    0.000027   1.040    0.00013    0.00005
        945    38 -109.094812 -109.094775    0.000037   1.040    0.00012    0.00005
        946    35 -109.094811 -109.094765    0.000047   1.040    0.00012    0.00005
        947    35 -109.094811 -109.094755    0.000056   1.040    0.00011    0.00005
        948    38 -109.094811 -109.094746    0.000065   1.040    0.00011    0.00006
        949    35 -109.094811 -109.094736    0.000075   1.040    0.00011    0.00006
        950    35 -109.094811 -109.094728    0.000083   1.040    0.00011    0.00006
        951    34 -109.094812 -109.094720    0.000092   1.040    0.00011    0.00006
        952    35 -109.094813 -109.094714    0.000099   1.040    0.00011    0.00005
        953    35 -109.094814 -109.094708    0.000106   1.040    0.00011    0.00005
        954    35 -109.094815 -109.094704    0.000111   1.040    0.00011    0.00005
        955    35 -109.094816 -109.094701    0.000114   1.040    0.00011    0.00005
        956    38 -109.094817 -109.094701    0.000116   1.040    0.00011    0.00004
        957    38 -109.094819 -109.094701    0.000118   1.040    0.00011    0.00004
        958    38 -109.094820 -109.094703    0.000117   1.040    0.00011    0.00004
        959    39 -109.094822 -109.094707    0.000115   1.040    0.00011    0.00004
        960    39 -109.094823 -109.094711    0.000112   1.040    0.00011    0.00004
        961    39 -109.094825 -109.094717    0.000108   1.040    0.00011    0.00005
        962    39 -109.094826 -109.094724    0.000103   1.040    0.00010    0.00005
        963    39 -109.094828 -109.094731    0.000097   1.040    0.00010    0.00005
        964    39 -109.094829 -109.094739    0.000090   1.040    0.00010    0.00005
        965    39 -109.094830 -109.094747    0.000083   1.040    0.00010    0.00005
        966    39 -109.094831 -109.094755    0.000076   1.040    0.00010    0.00005
        967    39 -109.094832 -109.094763    0.000069   1.040    0.00010    0.00005
        968    39 -109.094833 -109.094771    0.000062   1.040    0.00010    0.00004
        969    39 -109.094833 -109.094778    0.000055   1.040    0.00010    0.00004
        970    42 -109.094834 -109.094784    0.000049   1.040    0.00011    0.00004
        971    39 -109.094833 -109.094790    0.000043   1.040    0.00011    0.00004
        972    42 -109.094833 -109.094795    0.000039   1.040    0.00011    0.00004
        973    38 -109.094832 -109.094798    0.000034   1.040    0.00011    0.00004
        974    42 -109.094832 -109.094801    0.000031   1.040    0.00010    0.00004
        975    38 -109.094831 -109.094802    0.000029   1.040    0.00010    0.00004
        976    42 -109.094831 -109.094802    0.000028   1.040    0.00010    0.00004
        977    38 -109.094829 -109.094801    0.000028   1.040    0.00010    0.00004
        978    42 -109.094828 -109.094799    0.000029   1.040    0.00010    0.00004

        ==> Orbital Optimization <==

            Jacobi Optimization converged.
            Total energy change: -6.995994e-07

        979    70 -109.094984 -109.091730    0.003254   1.040    0.00061    0.00087
        980    42 -109.095183 -109.093093    0.002090   1.040    0.00061    0.00053
        981    37 -109.095299 -109.093984    0.001315   1.040    0.00054    0.00047
        982    36 -109.095313 -109.094408    0.000906   1.040    0.00044    0.00044
        983    37 -109.095274 -109.094562    0.000712   1.040    0.00042    0.00037
        984    37 -109.095225 -109.094583    0.000643   1.040    0.00044    0.00026
        985    40 -109.095183 -109.094568    0.000616   1.040    0.00039    0.00021
        986    40 -109.095139 -109.094618    0.000521   1.040    0.00030    0.00027
        987    38 -109.095090 -109.094820    0.000270   1.040    0.00028    0.00030
        988    37 -109.095037 -109.095142    0.000106   1.040    0.00030    0.00030
        989    34 -109.094980 -109.095498    0.000518   1.040    0.00030    0.00029
        990    34 -109.094927 -109.095766    0.000839   1.040    0.00025    0.00029
        991    32 -109.094870 -109.095878    0.001008   1.040    0.00019    0.00029
        992    32 -109.094819 -109.095837    0.001018   1.040    0.00018    0.00027
        993    36 -109.094775 -109.095681    0.000906   1.040    0.00019    0.00025
        994    36 -109.094741 -109.095487    0.000746   1.040    0.00020    0.00022
        995    37 -109.094718 -109.095303    0.000586   1.040    0.00020    0.00020
        996    37 -109.094708 -109.095171    0.000462   1.040    0.00019    0.00018
        997    38 -109.094709 -109.095090    0.000380   1.040    0.00020    0.00016
        998    41 -109.094720 -109.095042    0.000321   1.040    0.00020    0.00015
        999    41 -109.094736 -109.095001    0.000265   1.040    0.00021    0.00015

        ==> Orbital Optimization <==

            Jacobi Optimization converged.
            Total energy change: -1.574517e-08

       1000    41 -109.094757 -109.094330    0.000427   1.443    0.00021    0.00015
       1001    39 -109.094765 -109.095004    0.000238   1.443    0.00024    0.00018
       1002    40 -109.094782 -109.094937    0.000154   1.443    0.00025    0.00016
       1003    39 -109.094798 -109.094842    0.000044   1.443    0.00024    0.00017
       1004    38 -109.094812 -109.094745    0.000067   1.443    0.00023    0.00018
       1005    32 -109.094824 -109.094666    0.000158   1.443    0.00021    0.00018
       1006    37 -109.094833 -109.094629    0.000204   1.443    0.00018    0.00018
       1007    35 -109.094841 -109.094608    0.000233   1.443    0.00016    0.00017
       1008    35 -109.094845 -109.094601    0.000244   1.443    0.00015    0.00017
       1009    35 -109.094846 -109.094593    0.000253   1.443    0.00013    0.00016
       1010    35 -109.094844 -109.094580    0.000264   1.443    0.00013    0.00015
       1011    36 -109.094842 -109.094563    0.000279   1.443    0.00013    0.00014
       1012    35 -109.094839 -109.094544    0.000295   1.443    0.00014    0.00013
       1013    35 -109.094838 -109.094529    0.000309   1.443    0.00015    0.00011
       1014    33 -109.094836 -109.094522    0.000313   1.443    0.00015    0.00010
       1015    33 -109.094835 -109.094526    0.000309   1.443    0.00016    0.00010
       1016    35 -109.094834 -109.094539    0.000295   1.443    0.00015    0.00010
       1017    35 -109.094833 -109.094557    0.000276   1.443    0.00015    0.00010
       1018    36 -109.094833 -109.094577    0.000256   1.443    0.00014    0.00011
       1019    35 -109.094832 -109.094597    0.000235   1.443    0.00012    0.00012
       1020    35 -109.094833 -109.094616    0.000216   1.443    0.00011    0.00012
       1021    35 -109.094834 -109.094635    0.000198   1.443    0.00010    0.00012
       1022    35 -109.094835 -109.094655    0.000180   1.443    0.00010    0.00012
       1023    34 -109.094837 -109.094678    0.000160   1.443    0.00010    0.00012
       1024    34 -109.094841 -109.094704    0.000137   1.443    0.00010    0.00011
       1025    35 -109.094844 -109.094734    0.000111   1.443    0.00011    0.00010
       1026    35 -109.094848 -109.094766    0.000082   1.443    0.00012    0.00009
       1027    35 -109.094851 -109.094800    0.000051   1.443    0.00012    0.00008
       1028    35 -109.094854 -109.094835    0.000019   1.443    0.00013    0.00008
       1029    35 -109.094856 -109.094868    0.000012   1.443    0.00014    0.00007
       1030    37 -109.094856 -109.094900    0.000043   1.443    0.00014    0.00007
       1031    37 -109.094856 -109.094926    0.000071   1.443    0.00014    0.00007
       1032    37 -109.094853 -109.094950    0.000097   1.443    0.00014    0.00007
       1033    37 -109.094849 -109.094967    0.000118   1.443    0.00013    0.00008
       1034    36 -109.094844 -109.094978    0.000134   1.443    0.00013    0.00009
       1035    36 -109.094838 -109.094983    0.000144   1.443    0.00012    0.00009
       1036    32 -109.094832 -109.094977    0.000145   1.443    0.00011    0.00009
       1037    33 -109.094825 -109.094967    0.000142   1.443    0.00010    0.00009
       1038    32 -109.094819 -109.094947    0.000128   1.443    0.00010    0.00009
       1039    33 -109.094813 -109.094922    0.000109   1.443    0.00010    0.00008
       1040    33 -109.094808 -109.094891    0.000083   1.443    0.00010    0.00008

        ==> Orbital Optimization <==

            Jacobi Optimization converged.
            Total energy change: -2.675196e-08

       1041    50 -109.094831 -109.094196    0.000635   1.443    0.00012    0.00018
       1042    41 -109.094857 -109.094408    0.000449   1.443    0.00014    0.00013
       1043    34 -109.094875 -109.094569    0.000306   1.443    0.00014    0.00011
       1044    33 -109.094878 -109.094660    0.000218   1.443    0.00012    0.00010
       1045    34 -109.094874 -109.094689    0.000185   1.443    0.00011    0.00009
       1046    35 -109.094867 -109.094684    0.000184   1.443    0.00011    0.00007
       1047    37 -109.094861 -109.094664    0.000198   1.443    0.00010    0.00007
       1048    37 -109.094855 -109.094657    0.000198   1.443    0.00010    0.00009
       1049    35 -109.094849 -109.094681    0.000168   1.443    0.00010    0.00010
       1050    34 -109.094843 -109.094732    0.000111   1.443    0.00010    0.00011
       1051    34 -109.094835 -109.094790    0.000045   1.443    0.00010    0.00011
       1052    32 -109.094828 -109.094836    0.000007   1.443    0.00009    0.00011
       1053    33 -109.094822 -109.094852    0.000031   1.443    0.00009    0.00011
       1054    33 -109.094816 -109.094841    0.000025   1.443    0.00009    0.00010
       1055    33 -109.094812 -109.094809    0.000003   1.443    0.00010    0.00009

        ==> Orbital Optimization <==

            Jacobi Optimization converged.
            Total energy change: -2.217291e-09


      v2RDM iterations converged!

      v2RDM total spin [S(S+1)]:             0.000004
    * v2RDM total energy:           -109.094812075656



Properties will be evaluated at   0.000000,   0.000000,   0.000000 Bohr


Properties will be evaluated at   0.000000,   0.000000,   0.000000 Bohr

  Mulliken Charges: (a.u.)

   Center  Symbol    Alpha    Beta     Spin     Total
       1     N     3.50000  3.50000  0.00000 -0.00000
       2     N     3.50000  3.50000  0.00000 -0.00000

   Total alpha =  7.00000, Total beta =  7.00000, Total charge = -0.00000

 # Natural Orbital Occupation Numbers (alpha) #
 Irrep: 1
      1:  1.0000000
      2:  1.0000000
      3:  0.9906705
      4:  0.0000000
      5:  0.0000000
      6:  0.0000000
      7:  0.0000000

 Irrep: 2
      1:  0.0000000

 Irrep: 3
      1:  0.0327590
      2:  0.0000000
      3:  0.0000000

 Irrep: 4
      1:  0.0327588
      2:  0.0000000
      3:  0.0000000

 Irrep: 5
      1:  0.0000000

 Irrep: 6
      1:  1.0000000
      2:  1.0000000
      3:  0.0093252
      4:  0.0000000
      5:  0.0000000
      6:  0.0000000
      7:  0.0000000

 Irrep: 7
      1:  0.9672432
      2:  0.0000000
      3:  0.0000000

 Irrep: 8
      1:  0.9672433
      2:  0.0000000
      3:  0.0000000


 # Natural Orbital Occupation Numbers (beta) #
 Irrep: 1
      1:  1.0000000
      2:  1.0000000
      3:  0.9905832
      4:  0.0000000
      5:  0.0000000
      6:  0.0000000
      7:  0.0000000

 Irrep: 2
      1:  0.0000000

 Irrep: 3
      1:  0.0327256
      2:  0.0000000
      3:  0.0000000

 Irrep: 4
      1:  0.0327255
      2:  0.0000000
      3:  0.0000000

 Irrep: 5
      1:  0.0000000

 Irrep: 6
      1:  1.0000000
      2:  1.0000000
      3:  0.0094327
      4:  0.0000000
      5:  0.0000000
      6:  0.0000000
      7:  0.0000000

 Irrep: 7
      1:  0.9672664
      2:  0.0000000
      3:  0.0000000

 Irrep: 8
      1:  0.9672666
      2:  0.0000000
      3:  0.0000000


*** tstop() called on ubuntu at Wed Aug 19 09:02:06 2015
Module time:
	user time   =       3.13 seconds =       0.05 minutes
	system time =       0.01 seconds =       0.00 minutes
	total time  =          4 seconds =       0.07 minutes
Total time:
	user time   =       9.87 seconds =       0.16 minutes
	system time =       0.03 seconds =       0.00 minutes
	total time  =         10 seconds =       0.17 minutes

*** PSI4 exiting successfully. Buy a developer a beer!
