    -----------------------------------------------------------------------
          Psi4: An Open-Source Ab Initio Electronic Structure Package
                              Psi4  Driver

                          Git: Rev {detached?}  

    J. M. Turney, A. C. Simmonett, R. M. Parrish, E. G. Hohenstein,
    F. A. Evangelista, J. T. Fermann, B. J. Mintz, L. A. Burns, J. J. Wilke,
    M. L. Abrams, N. J. Russ, M. L. Leininger, C. L. Janssen, E. T. Seidl,
    W. D. Allen, H. F. Schaefer, R. A. King, E. F. Valeev, C. D. Sherrill,
    and T. D. Crawford, WIREs Comput. Mol. Sci. 2, 556-565 (2012)
    (doi: 10.1002/wcms.93)

                         Additional Contributions by
    A. E. DePrince, M. Saitow, U. Bozkaya, A. Yu. Sokolov
    -----------------------------------------------------------------------


    Psi4 started on: Wed Aug 19 08:54:10 2015

    Process ID:  19520
    PSI4DATADIR: /apps/software/psi4public-master/install/share/psi
    Memory level set to 256.000 MB

  ==> Input File <==

--------------------------------------------------------------------------

# PYTHONPATH must include directory above plugin directory.
#     Define either externally or here, then import plugin.
sys.path.insert(0, '../..')
import v2rdm_casscf

molecule mol {
0 1
n
n 1 r
}

set {
  guess sad
  basis cc-pvdz
  scf_type pk
  df_basis_scf cc-pvdz-jkfit 
  d_convergence 1e-10
  maxiter 500
  reference rhf
  frozen_docc  [ 2, 0, 0, 0, 0, 2, 0, 0 ]
  frozen_uocc  [ 4, 1, 2, 2, 1, 4, 2, 2 ]
  #frozen_docc  [  4 ]
  #frozen_uocc  [ 18 ]
}
set v2rdm_casscf {
  positivity dqg
  constrain_spin true
  constrain_d3   false
  spin_adapt_g2  false
  spin_adapt_q2  false
  r_convergence  1e-4
  e_convergence  1e-4
  cg_convergence 1e-6
  jacobi_write 1
  jacobi_nthread 1
  maxiter 20000
}

activate(mol)
mol.r = 0.5
energy('v2rdm-casscf')
mol.r = 1.1
energy('v2rdm-casscf')
--------------------------------------------------------------------------
/home/greg/v2rdm_casscf/v2rdm_casscf.so loaded.
Setting geometry variable r to 0.500000

*** tstart() called on ubuntu
*** at Wed Aug 19 08:54:11 2015


         ---------------------------------------------------------
                                   SCF
            by Justin Turney, Rob Parrish, and Andy Simmonett
                              RHF Reference
                        1 Threads,    256 MiB Core
         ---------------------------------------------------------

  ==> Geometry <==

    Molecular point group: d2h
    Full point group: D_inf_h

    Geometry (in Angstrom), charge = 0, multiplicity = 1:

       Center              X                  Y                   Z       
    ------------   -----------------  -----------------  -----------------
           N          0.000000000000     0.000000000000    -0.250000000000
           N          0.000000000000     0.000000000000     0.250000000000

  Running in d2h symmetry.

  Rotational constants: A = ************  B =      9.63082  C =      9.63082 [cm^-1]
  Rotational constants: A = ************  B = 288724.60708  C = 288724.60708 [MHz]
  Nuclear repulsion =   51.859366441820001

  Charge       = 0
  Multiplicity = 1
  Electrons    = 14
  Nalpha       = 7
  Nbeta        = 7

  ==> Algorithm <==

  SCF Algorithm Type is PK.
  DIIS enabled.
  MOM disabled.
  Fractional occupation disabled.
  Guess Type is SAD.
  Energy threshold   = 1.00e-08
  Density threshold  = 1.00e-10
  Integral threshold = 0.00e+00

  ==> Primary Basis <==

  Basis Set: CC-PVDZ
    Number of shells: 12
    Number of basis function: 28
    Number of Cartesian functions: 30
    Spherical Harmonics?: true
    Max angular momentum: 2

  ==> Pre-Iterations <==

   -------------------------------------------------------
    Irrep   Nso     Nmo     Nalpha   Nbeta   Ndocc  Nsocc
   -------------------------------------------------------
     Ag         7       7       0       0       0       0
     B1g        1       1       0       0       0       0
     B2g        3       3       0       0       0       0
     B3g        3       3       0       0       0       0
     Au         1       1       0       0       0       0
     B1u        7       7       0       0       0       0
     B2u        3       3       0       0       0       0
     B3u        3       3       0       0       0       0
   -------------------------------------------------------
    Total      28      28       7       7       7       0
   -------------------------------------------------------

  Starting with a DF guess...

 OEINTS: Overlap, kinetic, potential, dipole, and quadrupole integrals
         stored in file 35.

  ==> Integral Setup <==

  ==> DFJK: Density-Fitted J/K Matrices <==

    J tasked:                  Yes
    K tasked:                  Yes
    wK tasked:                  No
    OpenMP threads:              1
    Integrals threads:           1
    Memory (MB):               183
    Algorithm:                Core
    Integral Cache:           SAVE
    Schwarz Cutoff:          1E-12
    Fitting Condition:       1E-12

   => Auxiliary Basis Set <=

  Basis Set: CC-PVDZ-JKFIT
    Number of shells: 48
    Number of basis function: 140
    Number of Cartesian functions: 162
    Spherical Harmonics?: true
    Max angular momentum: 3

  Minimum eigenvalue in the overlap matrix is 1.5735752976E-04.
  Using Symmetric Orthogonalization.
  SCF Guess: Superposition of Atomic Densities via on-the-fly atomic UHF.

  ==> Iterations <==

                           Total Energy        Delta E     RMS |[F,P]|

   @DF-RHF iter   0:  -108.43300160575647   -1.08433e+02   6.40175e-01 
   @DF-RHF iter   1:  -102.97596888747357    5.45703e+00   3.61535e-02 
   @DF-RHF iter   2:  -103.03910400743167   -6.31351e-02   8.04210e-03 DIIS
   @DF-RHF iter   3:  -103.04274607531816   -3.64207e-03   1.69846e-03 DIIS
   @DF-RHF iter   4:  -103.04303501400425   -2.88939e-04   1.63294e-04 DIIS
   @DF-RHF iter   5:  -103.04303794669987   -2.93270e-06   2.21403e-05 DIIS
   @DF-RHF iter   6:  -103.04303799619602   -4.94962e-08   1.69559e-06 DIIS
   @DF-RHF iter   7:  -103.04303799648277   -2.86747e-10   1.89839e-07 DIIS
   @DF-RHF iter   8:  -103.04303799648598   -3.21165e-12   9.16442e-09 DIIS
   @DF-RHF iter   9:  -103.04303799648592    5.68434e-14   6.29584e-10 DIIS
   @DF-RHF iter  10:  -103.04303799648595   -2.84217e-14   6.29241e-11 DIIS

  DF guess converged.

  ==> Integral Setup <==

 MINTS: Wrapper to libmints.
   by Justin Turney

   Calculation information:
      Number of atoms:                   2
      Number of AO shells:              12
      Number of SO shells:               6
      Number of primitives:             44
      Number of atomic orbitals:        30
      Number of basis functions:        28

      Number of irreps:                  8
      Integral cutoff                 0.00e+00
      Number of functions per irrep: [   7    1    3    3    1    7    3    3 ]

 OEINTS: Overlap, kinetic, potential, dipole, and quadrupole integrals
         stored in file 35.

      Computing two-electron integrals...done
      Computed 11509 non-zero two-electron integrals.
        Stored in file 33.

	Batch   1 pq = [       0,      82] index = [             0,3403]
  ==> DiskJK: Disk-Based J/K Matrices <==

    J tasked:                  Yes
    K tasked:                  Yes
    wK tasked:                  No
    Memory (MB):               183
    Schwarz Cutoff:          1E-12

   @RHF iter  11:  -103.04337417168954   -3.36175e-04   2.37860e-05 DIIS
   @RHF iter  12:  -103.04337420285775   -3.11682e-08   5.68873e-06 DIIS
   @RHF iter  13:  -103.04337420418118   -1.32343e-09   9.13090e-07 DIIS
   @RHF iter  14:  -103.04337420425252   -7.13385e-11   1.04603e-07 DIIS
   @RHF iter  15:  -103.04337420425371   -1.19371e-12   1.37782e-08 DIIS
   @RHF iter  16:  -103.04337420425368    2.84217e-14   1.37212e-09 DIIS
   @RHF iter  17:  -103.04337420425368    0.00000e+00   1.64558e-10 DIIS
   @RHF iter  18:  -103.04337420425371   -2.84217e-14   9.88583e-12 DIIS

  ==> Post-Iterations <==

    Orbital Energies (a.u.)
    -----------------------

    Doubly Occupied:                                                      

       1Ag   -16.484161     1B1u  -15.785893     2Ag    -1.444309  
       1B3u   -1.176599     1B2u   -1.176599     2B1u   -0.543616  
       3Ag    -0.524272  

    Virtual:                                                              

       1B2g    0.538181     1B3g    0.538181     2B3u    0.594641  
       2B2u    0.594641     3B1u    0.614128     4Ag     0.726476  
       5Ag     1.055370     2B2g    1.450590     2B3g    1.450590  
       1B1g    1.682008     6Ag     1.682008     4B1u    1.789550  
       3B3u    2.801107     3B2u    2.801107     5B1u    2.816412  
       6B1u    2.841104     1Au     2.841104     7Ag     3.148621  
       3B3g    4.716074     3B2g    4.716074     7B1u   13.525785  

    Final Occupation by Irrep:
             Ag   B1g   B2g   B3g    Au   B1u   B2u   B3u 
    DOCC [     3,    0,    0,    0,    0,    2,    1,    1 ]

  Energy converged.

  @RHF Final Energy:  -103.04337420425371

   => Energetics <=

    Nuclear Repulsion Energy =             51.8593664418200007
    One-Electron Energy =                -235.5345802015529273
    Two-Electron Energy =                  80.6318395554791891
    DFT Exchange-Correlation Energy =       0.0000000000000000
    Empirical Dispersion Energy =           0.0000000000000000
    PCM Polarization Energy =               0.0000000000000000
    EFP Energy =                            0.0000000000000000
    Total Energy =                       -103.0433742042537233

    Alert: EFP and PCM quantities not currently incorporated into SCF psivars.

Properties will be evaluated at   0.000000,   0.000000,   0.000000 Bohr
  ==> Properties <==


Properties computed using the SCF density matrix

  Nuclear Dipole Moment: (a.u.)
     X:     0.0000      Y:     0.0000      Z:     0.0000

  Electronic Dipole Moment: (a.u.)
     X:     0.0000      Y:     0.0000      Z:     0.0000

  Dipole Moment: (a.u.)
     X:     0.0000      Y:     0.0000      Z:     0.0000     Total:     0.0000

  Dipole Moment: (Debye)
     X:     0.0000      Y:     0.0000      Z:     0.0000     Total:     0.0000


  Saving occupied orbitals to File 180.

*** tstop() called on ubuntu at Wed Aug 19 08:54:11 2015
Module time:
	user time   =       0.60 seconds =       0.01 minutes
	system time =       0.01 seconds =       0.00 minutes
	total time  =          0 seconds =       0.00 minutes
Total time:
	user time   =       0.60 seconds =       0.01 minutes
	system time =       0.01 seconds =       0.00 minutes
	total time  =          0 seconds =       0.00 minutes
Reading options from the V2RDM_CASSCF block
Calling plugin v2rdm_casscf.so.

*** tstart() called on ubuntu
*** at Wed Aug 19 08:54:11 2015



        *******************************************************
        *                                                     *
        *    v-2RDM                                           *
        *                                                     *
        *    Ground-state variational 2-RDM optimization      *
        *    using a boundary-point semidefinite solver       *
        *                                                     *
        *    Eugene DePrince                                  *
        *                                                     *
        *******************************************************

  ==> Input parameters <==

        Freeze core orbitals?                 yes
        Number of frozen core orbitals:         4
        Number of active occupied orbitals:     3
        Number of active virtual orbitals:      3
        Number of frozen virtual orbitals:     18
        r_convergence:                  1.000e-04
        e_convergence:                  1.000e-04
        cg_convergence:                 1.000e-06
        maxiter:                            20000
        cg_maxiter:                         10000

  ==> Memory requirements <==

        D2:                          0.00 mb
        Q2:                          0.00 mb
        G2:                          0.01 mb

        Total number of variables:           1500
        Total number of constraints:         1282
        Total memory requirements:        4.87 mb

    ==> Transform two-electron integrals <==

	Presorting SO-basis two-electron integrals.
	Sorting File: SO Ints (nn|nn) nbuckets = 1
	Transforming the one-electron integrals and constructing Fock matrices
	Starting first half-transformation.
	Sorting half-transformed integrals.
	First half integral transformation complete.
	Starting second half-transformation.
	Two-electron integral transformation complete.

        Time for integral transformation:     0.01 s


        Read integrals......done.


    reference energy:        -103.043374204254
    frozen core energy:      -138.046901361584
    initial 2-RDM energy:     -73.010113727471

      oiter iiter        E(p)        E(d)      E gap)      mu     eps(p)     eps(d)
          0    71 -113.943085  144.409324  258.352408   1.000   50.74042   72.62451
          1    40  -82.915595 -268.306563  185.390968   1.000    9.54542   30.76568
          2    47 -110.290977 -113.264447    2.973470   1.000   13.99634    6.56338
          3    39  -97.932820 -103.538815    5.605995   1.000    6.27759    3.71703
          4    42 -101.745054 -102.022905    0.277852   1.000    3.34128    2.97705
          5    42  -98.738993  -99.773284    1.034291   1.000    1.77521    2.12878
          6    35 -101.061886  -98.945094    2.116792   1.000    1.26929    1.54995
          7    38 -100.451932  -97.697146    2.754787   1.000    0.81404    1.45599
          8    37 -101.367152 -100.009482    1.357670   1.000    0.58959    0.87810
          9    42 -101.053497 -100.255517    0.797981   1.000    0.24506    0.67620
         10    42 -101.430598 -100.232615    1.197983   1.000    0.22703    0.53730
         11    38 -101.465212  -99.907521    1.557691   1.000    0.19763    0.45878
         12    35 -101.745904  -99.926205    1.819700   1.000    0.16128    0.42016
         13    41 -101.845725 -100.140771    1.704954   1.000    0.17640    0.38936
         14    40 -101.991435 -100.408703    1.582732   1.000    0.15326    0.37369
         15    40 -102.066636 -100.529685    1.536951   1.000    0.14244    0.36035
         16    37 -102.181355 -100.561149    1.620206   1.000    0.15566    0.34699
         17    40 -102.273550 -100.624865    1.648684   1.000    0.16601    0.33607
         18    33 -102.378228 -100.694256    1.683973   1.000    0.17024    0.32791
         19    38 -102.467874 -100.835223    1.632651   1.000    0.16233    0.31747
         20    38 -102.547600 -101.032784    1.514815   1.000    0.16802    0.29543
         21    39 -102.600049 -101.370695    1.229354   1.000    0.19917    0.25470
         22    40 -102.631194 -101.865747    0.765446   1.000    0.22705    0.20314
         23    40 -102.646041 -102.332722    0.313319   1.000    0.20888    0.17545
         24    38 -102.654452 -102.606546    0.047907   1.000    0.15928    0.17753
         25    32 -102.659497 -102.660222    0.000726   1.000    0.11558    0.17790
         26    38 -102.670226 -102.553431    0.116795   1.000    0.09679    0.16945
         27    41 -102.686456 -102.335760    0.350696   1.000    0.09450    0.15996
         28    40 -102.711657 -102.102930    0.608726   1.000    0.08980    0.15474
         29    38 -102.741649 -101.946867    0.794781   1.000    0.08224    0.15178
         30    32 -102.769866 -101.892304    0.877562   1.000    0.07608    0.15001
         31    38 -102.794742 -101.913206    0.881536   1.000    0.06926    0.14858
         32    38 -102.815891 -101.994802    0.821089   1.000    0.06068    0.14682
         33    38 -102.834068 -102.104079    0.729989   1.000    0.06535    0.14346
         34    39 -102.847534 -102.254313    0.593221   1.000    0.08229    0.13759
         35    34 -102.854116 -102.396865    0.457250   1.000    0.08335    0.13175
         36    37 -102.856501 -102.454334    0.402167   1.000    0.07090    0.12839
         37    38 -102.866391 -102.402234    0.464157   1.000    0.05974    0.12697
         38    38 -102.884401 -102.307086    0.577316   1.000    0.04748    0.12740
         39    38 -102.907385 -102.232048    0.675337   1.000    0.02984    0.12823
         40    32 -102.931340 -102.205246    0.726094   1.000    0.01949    0.12773
         41    41 -102.952880 -102.226826    0.726053   1.000    0.02668    0.12590
         42    41 -102.969964 -102.270311    0.699653   1.000    0.03115    0.12447
         43    40 -102.983223 -102.307118    0.676106   1.000    0.02760    0.12435
         44    38 -102.994644 -102.319414    0.675230   1.000    0.01963    0.12488
         45    31 -103.006399 -102.307084    0.699315   1.000    0.01344    0.12511
         46    38 -103.019390 -102.282575    0.736815   1.000    0.01378    0.12484
         47    40 -103.034521 -102.260082    0.774438   1.000    0.01710    0.12431
         48    40 -103.048338 -102.251533    0.796806   1.000    0.03682    0.11847
         49    37 -103.068638 -102.335872    0.732766   1.000    0.11754    0.08975
         50    41 -103.098832 -102.727781    0.371050   1.000    0.15266    0.03664
         51    47 -103.095919 -103.197137    0.101218   1.000    0.12765    0.03852
         52    42 -103.075627 -103.499000    0.423373   1.000    0.06873    0.05401
         53    38 -103.049575 -103.564315    0.514739   1.000    0.02659    0.05209
         54    41 -103.028658 -103.428846    0.400189   1.000    0.06022    0.03897
         55    41 -103.019142 -103.187392    0.168250   1.000    0.07713    0.02028
         56    42 -103.023396 -102.951513    0.071883   1.000    0.06436    0.01356
         57    46 -103.036463 -102.806059    0.230405   1.000    0.03319    0.02467
         58    31 -103.051620 -102.785760    0.265860   1.000    0.01576    0.02682
         59    41 -103.061485 -102.863252    0.198233   1.000    0.03504    0.01959
         60    41 -103.065004 -102.988641    0.076363   1.000    0.04280    0.00728
         61    48 -103.061880 -103.108364    0.046484   1.000    0.03509    0.00679
         62    47 -103.054669 -103.179404    0.124735   1.000    0.01935    0.01337
         63    31 -103.047246 -103.186665    0.139420   1.000    0.01258    0.01398
         64    40 -103.042447 -103.142916    0.100469   1.000    0.02028    0.00974
         65    41 -103.041170 -103.075206    0.034036   1.000    0.02315    0.00406
         66    42 -103.043245 -103.013732    0.029514   1.000    0.01894    0.00469
         67    41 -103.046993 -102.979654    0.067338   1.000    0.01246    0.00747
         68    31 -103.050697 -102.978889    0.071807   1.000    0.01132    0.00751
         69    41 -103.052962 -103.003352    0.049610   1.000    0.01443    0.00533
         70    41 -103.053508 -103.038308    0.015200   1.000    0.01532    0.00283
         71    47 -103.052518 -103.069481    0.016963   1.000    0.01319    0.00324
         72    42 -103.050432 -103.086797    0.036365   1.000    0.01036    0.00451
         73    35 -103.048290 -103.087989    0.039699   1.000    0.00976    0.00451
         74    39 -103.046916 -103.075062    0.028146   1.000    0.01079    0.00341
         75    41 -103.046468 -103.056116    0.009649   1.000    0.01112    0.00223
         76    41 -103.046287 -103.038731    0.007555   1.000    0.00956    0.00248
         77    41 -103.047549 -103.029638    0.017911   1.000    0.00877    0.00277
         78    38 -103.048544 -103.029414    0.019130   1.000    0.00877    0.00271
         79    41 -103.049553 -103.035233    0.014321   1.000    0.00898    0.00228
         80    42 -103.049840 -103.044164    0.005676   1.000    0.00904    0.00179
         81    43 -103.049639 -103.052563    0.002925   1.000    0.00872    0.00172
         82    47 -103.049081 -103.058365    0.009284   1.000    0.00828    0.00187
         83    41 -103.048379 -103.059908    0.011529   1.000    0.00794    0.00194
         84    41 -103.047892 -103.057794    0.009902   1.000    0.00785    0.00174
         85    41 -103.047597 -103.053137    0.005540   1.000    0.00781    0.00146
         86    41 -103.047651 -103.047864    0.000213   1.000    0.00770    0.00134
         87    41 -103.047925 -103.043863    0.004062   1.000    0.00754    0.00138
         88    41 -103.048316 -103.042223    0.006093   1.000    0.00744    0.00140
         89    41 -103.048650 -103.042976    0.005674   1.000    0.00741    0.00133
         90    41 -103.048841 -103.045368    0.003473   1.000    0.00739    0.00122
         91    41 -103.048853 -103.048280    0.000573   1.000    0.00731    0.00114
         92    41 -103.049234 -103.050665    0.001431   1.000    0.00695    0.00116
         93    41 -103.050062 -103.052200    0.002138   1.000    0.00628    0.00120
         94    41 -103.050033 -103.052763    0.002730   1.000    0.00610    0.00115
         95    42 -103.050475 -103.051681    0.001206   1.000    0.00567    0.00110
         96    42 -103.050527 -103.050154    0.000373   1.000    0.00560    0.00100
         97    43 -103.050453 -103.048296    0.002158   1.000    0.00554    0.00095
         98    47 -103.050479 -103.046767    0.003712   1.000    0.00548    0.00098
         99    43 -103.050503 -103.046222    0.004281   1.000    0.00545    0.00094
        100    42 -103.050496 -103.046492    0.004004   1.000    0.00541    0.00094
        101    41 -103.050524 -103.047372    0.003151   1.000    0.00537    0.00092
        102    42 -103.050512 -103.048523    0.001990   1.000    0.00528    0.00089
        103    43 -103.050504 -103.049468    0.001037   1.000    0.00521    0.00086
        104    43 -103.050508 -103.050104    0.000403   1.000    0.00513    0.00087
        105    43 -103.050493 -103.050291    0.000202   1.000    0.00505    0.00085
        106    47 -103.050461 -103.049940    0.000521   1.000    0.00496    0.00089
        107    47 -103.050439 -103.049567    0.000872   1.000    0.00484    0.00088
        108    47 -103.050425 -103.049263    0.001162   1.000    0.00464    0.00100
        109    47 -103.050399 -103.049508    0.000891   1.000    0.00454    0.00092
        110    41 -103.050370 -103.050118    0.000252   1.000    0.00448    0.00079
        111    50 -103.050358 -103.049996    0.000362   1.000    0.00449    0.00071
        112    51 -103.050348 -103.049155    0.001193   1.000    0.00451    0.00067
        113    51 -103.050314 -103.048050    0.002264   1.000    0.00441    0.00083
        114    47 -103.050262 -103.047591    0.002670   1.000    0.00437    0.00067
        115    51 -103.050270 -103.047222    0.003047   1.000    0.00428    0.00063
        116    47 -103.050266 -103.047355    0.002911   1.000    0.00416    0.00062
        117    47 -103.050245 -103.047838    0.002408   1.000    0.00411    0.00060
        118    47 -103.050224 -103.048448    0.001776   1.000    0.00409    0.00057
        119    47 -103.050220 -103.048561    0.001659   1.000    0.00409    0.00055
        120    47 -103.050179 -103.048636    0.001542   1.000    0.00408    0.00054
        121    54 -103.050158 -103.048368    0.001791   1.000    0.00407    0.00053
        122    47 -103.050143 -103.048129    0.002014   1.000    0.00404    0.00065
        123    42 -103.050117 -103.048394    0.001723   1.000    0.00401    0.00055
        124    47 -103.050128 -103.048123    0.002005   1.000    0.00399    0.00051
        125    46 -103.050092 -103.048145    0.001947   1.000    0.00396    0.00049
        126    53 -103.050089 -103.047963    0.002126   1.000    0.00394    0.00048
        127    48 -103.050072 -103.047942    0.002130   1.000    0.00392    0.00048
        128    53 -103.050065 -103.047833    0.002231   1.000    0.00387    0.00051
        129    49 -103.050025 -103.048052    0.001973   1.000    0.00386    0.00047
        130    47 -103.050337 -103.048027    0.002310   1.000    0.00380    0.00051
        131    46 -103.050130 -103.048216    0.001914   1.000    0.00378    0.00046
        132    47 -103.050223 -103.048004    0.002219   1.000    0.00375    0.00045
        133    54 -103.050067 -103.048018    0.002049   1.000    0.00370    0.00049
        134    53 -103.050121 -103.048022    0.002099   1.000    0.00369    0.00045
        135    46 -103.049908 -103.048067    0.001841   1.000    0.00368    0.00050
        136    47 -103.049840 -103.048239    0.001601   1.000    0.00376    0.00049
        137    47 -103.049849 -103.048511    0.001338   1.000    0.00372    0.00044
        138    54 -103.049824 -103.048505    0.001319   1.000    0.00371    0.00042
        139    54 -103.049817 -103.048391    0.001425   1.000    0.00367    0.00041
        140    53 -103.049783 -103.048213    0.001569   1.000    0.00366    0.00040
        141    53 -103.049770 -103.047991    0.001780   1.000    0.00365    0.00039
        142    53 -103.049997 -103.047719    0.002278   1.000    0.00354    0.00042
        143    53 -103.049936 -103.047696    0.002240   1.000    0.00355    0.00044
        144    47 -103.049983 -103.047584    0.002398   1.000    0.00355    0.00039
        145    53 -103.049946 -103.047546    0.002400   1.000    0.00352    0.00038
        146    53 -103.049946 -103.047539    0.002407   1.000    0.00350    0.00037
        147    54 -103.049907 -103.047578    0.002329   1.000    0.00347    0.00041
        148    46 -103.049862 -103.047837    0.002025   1.000    0.00347    0.00050
        149    42 -103.049901 -103.048408    0.001493   1.000    0.00348    0.00041
        150    47 -103.049857 -103.048755    0.001103   1.000    0.00346    0.00053
        151    42 -103.049894 -103.049018    0.000876   1.000    0.00350    0.00042
        152    42 -103.049848 -103.049009    0.000839   1.000    0.00352    0.00038
        153    42 -103.049848 -103.048653    0.001195   1.000    0.00351    0.00049
        154    41 -103.049767 -103.048511    0.001257   1.000    0.00355    0.00047
        155    45 -103.049795 -103.048486    0.001309   1.000    0.00354    0.00037
        156    46 -103.049747 -103.048241    0.001506   1.000    0.00356    0.00034
        157    48 -103.049753 -103.047889    0.001865   1.000    0.00356    0.00031
        158    48 -103.049735 -103.047499    0.002236   1.000    0.00355    0.00031
        159    47 -103.049743 -103.047221    0.002523   1.000    0.00351    0.00041
        160    46 -103.049714 -103.047221    0.002493   1.000    0.00331    0.00050
        161    47 -103.049703 -103.047625    0.002078   1.000    0.00322    0.00046
        162    45 -103.049738 -103.048303    0.001435   1.000    0.00320    0.00055
        163    40 -103.049754 -103.049091    0.000663   1.000    0.00325    0.00043
        164    46 -103.049731 -103.049517    0.000214   1.000    0.00330    0.00038
        165    47 -103.049611 -103.049522    0.000090   1.000    0.00315    0.00059
        166    42 -103.049620 -103.049742    0.000122   1.000    0.00316    0.00063
        167    40 -103.049531 -103.049804    0.000273   1.000    0.00315    0.00046
        168    47 -103.049527 -103.049606    0.000079   1.000    0.00324    0.00037
        169    47 -103.049508 -103.049022    0.000486   1.000    0.00331    0.00033
        170    47 -103.049534 -103.048329    0.001205   1.000    0.00334    0.00042
        171    41 -103.049544 -103.047878    0.001665   1.000    0.00333    0.00035
        172    47 -103.049537 -103.047514    0.002023   1.000    0.00332    0.00029
        173    46 -103.049527 -103.047178    0.002349   1.000    0.00329    0.00027
        174    47 -103.049516 -103.046879    0.002637   1.000    0.00326    0.00026
        175    46 -103.049517 -103.046601    0.002916   1.000    0.00322    0.00027
        176    45 -103.049537 -103.046501    0.003036   1.000    0.00317    0.00027
        177    46 -103.049427 -103.046583    0.002844   1.000    0.00274    0.00041
        178    42 -103.049458 -103.046940    0.002518   1.000    0.00279    0.00030
        179    46 -103.049411 -103.047331    0.002080   1.000    0.00269    0.00024
        180    47 -103.049417 -103.047725    0.001692   1.000    0.00273    0.00022
        181    47 -103.049398 -103.048028    0.001370   1.000    0.00272    0.00022
        182    47 -103.049286 -103.048220    0.001066   1.000    0.00247    0.00037
        183    42 -103.049320 -103.048460    0.000861   1.000    0.00254    0.00029
        184    47 -103.049272 -103.048539    0.000732   1.000    0.00250    0.00026
        185    47 -103.049278 -103.048526    0.000752   1.000    0.00255    0.00024
        186    47 -103.049253 -103.048388    0.000865   1.000    0.00256    0.00022
        187    49 -103.049249 -103.048149    0.001100   1.000    0.00259    0.00020
        188    47 -103.049236 -103.047844    0.001393   1.000    0.00259    0.00019
        189    47 -103.049232 -103.047530    0.001702   1.000    0.00259    0.00019
        190    47 -103.049225 -103.047246    0.001979   1.000    0.00257    0.00019
        191    47 -103.049223 -103.047021    0.002202   1.000    0.00254    0.00019
        192    49 -103.049221 -103.046868    0.002353   1.000    0.00251    0.00019
        193    49 -103.049222 -103.046795    0.002426   1.000    0.00249    0.00020
        194    49 -103.049223 -103.046806    0.002418   1.000    0.00246    0.00020
        195    49 -103.049224 -103.046893    0.002331   1.000    0.00244    0.00019
        196    49 -103.049223 -103.047044    0.002179   1.000    0.00243    0.00019
        197    49 -103.049220 -103.047237    0.001983   1.000    0.00241    0.00018
        198    48 -103.049215 -103.047445    0.001770   1.000    0.00241    0.00018
        199    49 -103.049207 -103.047642    0.001565   1.000    0.00240    0.00018

        ==> Orbital Optimization <==

            Jacobi Optimization did not converge.
            Total energy change: -2.741070e-02

        200    48 -103.076608 -101.670094    1.406514  13.507    0.00241    0.00018
        201    92 -103.091377 -100.196702    2.894674  13.507    0.03227    0.40094
        202    61 -103.102170 -101.621310    1.480860  13.507    0.04000    0.27461
        203    59 -103.102150 -103.307227    0.205077  13.507    0.03711    0.20314
        204    54 -103.097720 -104.534891    1.437170  13.507    0.02302    0.24087
        205    54 -103.090842 -104.964598    1.873756  13.507    0.00959    0.24598
        206    61 -103.085907 -104.612545    1.526638  13.507    0.01574    0.21249
        207    59 -103.084781 -103.785120    0.700339  13.507    0.02198    0.15949
        208    59 -103.087562 -102.892739    0.194823  13.507    0.02055    0.13241
        209    55 -103.089950 -102.346772    0.743179  13.507    0.01349    0.15168
        210    55 -103.098773 -102.449668    0.649105  13.507    0.00946    0.13411
        211    61 -103.099100 -102.704572    0.394528  13.507    0.01174    0.10924
        212    54 -103.102512 -103.005608    0.096903  13.507    0.01172    0.09158
        213    54 -103.102468 -103.275292    0.172824  13.507    0.01110    0.07936
        214    54 -103.102755 -103.456684    0.353929  13.507    0.00957    0.07733
        215    49 -103.100978 -103.555758    0.454780  13.507    0.00940    0.07857
        216    38 -103.101927 -103.583342    0.481415  13.507    0.00815    0.08094
        217    54 -103.101765 -103.593314    0.491549  13.507    0.00847    0.08823
        218    47 -103.097493 -103.627446    0.529952  13.507    0.00615    0.09166
        219    47 -103.095018 -103.668760    0.573742  13.507    0.00509    0.09537
        220    54 -103.093053 -103.741639    0.648585  13.507    0.00505    0.09089
        221    54 -103.090882 -103.685616    0.594734  13.507    0.00594    0.08520
        222    56 -103.089120 -103.622080    0.532960  13.507    0.00678    0.08297
        223    54 -103.087597 -103.537504    0.449908  13.507    0.00746    0.07235
        224    54 -103.085938 -103.433935    0.347996  13.507    0.00758    0.06171
        225    53 -103.084921 -103.329435    0.244514  13.507    0.00758    0.05239
        226    55 -103.084269 -103.233958    0.149689  13.507    0.00698    0.04428
        227    54 -103.084578 -103.133361    0.048783  13.507    0.00688    0.03963
        228    55 -103.085311 -103.028798    0.056514  13.507    0.00658    0.04063
        229    54 -103.086484 -102.929294    0.157190  13.507    0.00608    0.04468
        230    54 -103.087790 -102.848730    0.239060  13.507    0.00520    0.04889
        231    54 -103.089192 -102.795985    0.293206  13.507    0.00413    0.05210
        232    54 -103.090610 -102.778953    0.311657  13.507    0.00322    0.05302
        233    47 -103.092052 -102.790049    0.302003  13.507    0.00282    0.05137
        234    53 -103.093186 -102.822785    0.270401  13.507    0.00276    0.04763
        235    53 -103.094020 -102.876532    0.217488  13.507    0.00322    0.04231
        236    55 -103.094936 -102.941027    0.153909  13.507    0.00350    0.03532
        237    53 -103.095509 -102.999842    0.095666  13.507    0.00377    0.02815
        238    53 -103.095830 -103.060426    0.035404  13.507    0.00385    0.02234
        239    53 -103.095783 -103.119883    0.024100  13.507    0.00383    0.02119
        240    54 -103.095279 -103.184005    0.088725  13.507    0.00373    0.02275
        241    52 -103.094692 -103.241749    0.147057  13.507    0.00345    0.02686
        242    52 -103.093838 -103.293516    0.199678  13.507    0.00314    0.03110
        243    53 -103.092768 -103.326081    0.233314  13.507    0.00282    0.03436
        244    53 -103.091269 -103.342177    0.250908  13.507    0.00266    0.03624
        245    49 -103.089994 -103.346322    0.256327  13.507    0.00245    0.03655
        246    47 -103.089040 -103.338216    0.249177  13.507    0.00281    0.03520
        247    54 -103.088224 -103.308732    0.220508  13.507    0.00327    0.03194
        248    54 -103.087583 -103.265782    0.178199  13.507    0.00368    0.02761
        249    54 -103.087157 -103.218199    0.131042  13.507    0.00389    0.02294
        250    54 -103.086940 -103.169523    0.082583  13.507    0.00397    0.01825
        251    54 -103.086663 -103.121540    0.034877  13.507    0.00363    0.01499
        252    54 -103.086704 -103.079563    0.007141  13.507    0.00348    0.01341
        253    53 -103.086657 -103.039462    0.047195  13.507    0.00313    0.01586
        254    56 -103.087177 -103.007623    0.079554  13.507    0.00297    0.01784
        255    54 -103.087567 -102.976678    0.110889  13.507    0.00270    0.02075
        256    53 -103.088203 -102.959318    0.128885  13.507    0.00242    0.02234
        257    54 -103.088830 -102.948185    0.140645  13.507    0.00221    0.02391
        258    53 -103.089541 -102.953554    0.135987  13.507    0.00210    0.02360
        259    53 -103.090151 -102.961209    0.128942  13.507    0.00208    0.02161
        260    53 -103.090679 -102.977002    0.113677  13.507    0.00210    0.01961
        261    53 -103.091070 -103.001377    0.089693  13.507    0.00216    0.01607
        262    53 -103.091270 -103.024146    0.067124  13.507    0.00221    0.01303
        263    53 -103.091324 -103.051518    0.039806  13.507    0.00225    0.01090
        264    53 -103.091260 -103.082294    0.008966  13.507    0.00229    0.00965
        265    53 -103.091116 -103.111987    0.020871  13.507    0.00229    0.00958
        266    54 -103.090911 -103.137244    0.046333  13.507    0.00225    0.01091
        267    56 -103.090630 -103.158022    0.067392  13.507    0.00219    0.01275
        268    55 -103.090286 -103.173480    0.083194  13.507    0.00214    0.01443
        269    53 -103.089883 -103.183615    0.093732  13.507    0.00212    0.01564
        270    54 -103.089451 -103.188204    0.098753  13.507    0.00214    0.01627
        271    54 -103.088846 -103.187403    0.098557  13.507    0.00210    0.01640
        272    54 -103.088350 -103.183203    0.094852  13.507    0.00217    0.01579
        273    53 -103.087956 -103.174068    0.086112  13.507    0.00225    0.01452
        274    53 -103.087311 -103.160732    0.073421  13.507    0.00230    0.01331
        275    55 -103.086928 -103.147075    0.060147  13.507    0.00221    0.01165
        276    55 -103.086674 -103.130049    0.043375  13.507    0.00222    0.01216
        277    53 -103.086533 -103.117166    0.030633  13.507    0.00214    0.01005
        278    54 -103.086491 -103.095648    0.009158  13.507    0.00216    0.00857
        279    54 -103.086499 -103.077592    0.008907  13.507    0.00213    0.00785
        280    54 -103.086557 -103.059382    0.027175  13.507    0.00210    0.00791
        281    52 -103.086679 -103.043644    0.043035  13.507    0.00203    0.00877
        282    54 -103.086856 -103.030079    0.056777  13.507    0.00196    0.00982
        283    53 -103.087086 -103.019960    0.067126  13.507    0.00189    0.01068
        284    53 -103.087346 -103.014223    0.073123  13.507    0.00185    0.01121
        285    52 -103.087557 -103.013078    0.074480  13.507    0.00180    0.01186
        286    53 -103.087837 -103.018489    0.069348  13.507    0.00172    0.01135
        287    52 -103.088116 -103.022608    0.065508  13.507    0.00173    0.01075
        288    55 -103.088369 -103.030083    0.058285  13.507    0.00174    0.00996
        289    53 -103.088568 -103.039193    0.049375  13.507    0.00179    0.00890
        290    54 -103.088719 -103.050473    0.038247  13.507    0.00182    0.00766
        291    56 -103.088819 -103.061593    0.027226  13.507    0.00184    0.00657
        292    55 -103.088850 -103.073837    0.015013  13.507    0.00183    0.00593
        293    53 -103.088818 -103.085725    0.003093  13.507    0.00182    0.00588
        294    56 -103.088723 -103.097426    0.008703  13.507    0.00180    0.00630
        295    55 -103.088573 -103.107948    0.019375  13.507    0.00178    0.00699
        296    54 -103.088385 -103.116901    0.028516  13.507    0.00175    0.00770
        297    56 -103.088163 -103.123652    0.035489  13.507    0.00174    0.00826
        298    58 -103.087922 -103.127923    0.040000  13.507    0.00173    0.00857
        299    53 -103.087677 -103.129511    0.041834  13.507    0.00172    0.00875
        300    58 -103.087451 -103.129822    0.042372  13.507    0.00177    0.00876
        301    59 -103.087252 -103.128619    0.041367  13.507    0.00184    0.00832
        302    54 -103.087046 -103.124034    0.036988  13.507    0.00191    0.00778
        303    51 -103.086865 -103.117300    0.030436  13.507    0.00198    0.00703
        304    51 -103.086714 -103.108587    0.021873  13.507    0.00203    0.00616
        305    54 -103.086607 -103.099144    0.012537  13.507    0.00205    0.00550
        306    54 -103.086531 -103.090255    0.003724  13.507    0.00203    0.00477
        307    54 -103.086491 -103.080606    0.005885  13.507    0.00199    0.00455
        308    54 -103.086494 -103.071729    0.014764  13.507    0.00194    0.00474
        309    54 -103.086537 -103.063490    0.023047  13.507    0.00188    0.00515
        310    54 -103.086618 -103.056446    0.030172  13.507    0.00183    0.00562
        311    53 -103.086731 -103.050664    0.036067  13.507    0.00179    0.00606
        312    54 -103.086835 -103.046411    0.040424  13.507    0.00171    0.00643
        313    54 -103.086739 -103.044117    0.042621  13.507    0.00146    0.00711
        314    53 -103.086943 -103.045886    0.041057  13.507    0.00150    0.00697
        315    59 -103.086986 -103.046419    0.040566  13.507    0.00146    0.00683
        316    60 -103.087128 -103.049420    0.037707  13.507    0.00148    0.00648
        317    55 -103.087212 -103.052607    0.034605  13.507    0.00148    0.00598
        318    59 -103.087323 -103.057203    0.030120  13.507    0.00148    0.00578
        319    58 -103.087380 -103.063570    0.023810  13.507    0.00146    0.00533
        320    59 -103.087410 -103.070456    0.016954  13.507    0.00143    0.00560
        321    56 -103.087379 -103.077953    0.009426  13.507    0.00141    0.00543
        322    56 -103.087318 -103.083423    0.003895  13.507    0.00139    0.00540
        323    56 -103.087220 -103.088959    0.001739  13.507    0.00137    0.00538
        324    54 -103.087097 -103.093005    0.005909  13.507    0.00135    0.00529
        325    54 -103.086952 -103.096319    0.009366  13.507    0.00134    0.00517
        326    54 -103.086802 -103.098399    0.011597  13.507    0.00133    0.00503
        327    59 -103.086658 -103.099548    0.012889  13.507    0.00131    0.00491
        328    54 -103.086529 -103.099654    0.013125  13.507    0.00129    0.00482
        329    53 -103.086421 -103.098970    0.012549  13.507    0.00127    0.00501
        330    53 -103.086332 -103.098366    0.012034  13.507    0.00125    0.00499
        331    53 -103.086266 -103.097238    0.010972  13.507    0.00124    0.00541
        332    53 -103.086217 -103.096731    0.010513  13.507    0.00124    0.00518
        333    54 -103.086177 -103.094930    0.008753  13.507    0.00123    0.00495
        334    54 -103.086145 -103.093460    0.007315  13.507    0.00121    0.00565
        335    53 -103.086107 -103.096175    0.010068  13.507    0.00116    0.00622
        336    54 -103.086068 -103.098414    0.012346  13.507    0.00110    0.00720
        337    55 -103.085967 -103.102624    0.016657  13.507    0.00109    0.00629
        338    55 -103.085856 -103.103665    0.017809  13.507    0.00106    0.00584
        339    59 -103.085709 -103.104048    0.018338  13.507    0.00104    0.00576
        340    54 -103.085562 -103.102292    0.016730  13.507    0.00099    0.00766
        341    54 -103.085411 -103.104767    0.019356  13.507    0.00099    0.00751
        342    55 -103.085254 -103.104974    0.019720  13.507    0.00096    0.00778
        343    56 -103.085090 -103.108681    0.023590  13.507    0.00091    0.00723
        344    49 -103.084911 -103.107162    0.022251  13.507    0.00082    0.00703
        345    56 -103.084737 -103.106752    0.022015  13.507    0.00074    0.00692
        346    49 -103.084579 -103.103586    0.019007  13.507    0.00069    0.00656
        347    49 -103.084449 -103.100426    0.015977  13.507    0.00068    0.00582
        348    53 -103.084345 -103.097019    0.012675  13.507    0.00068    0.00483
        349    47 -103.084264 -103.094402    0.010138  13.507    0.00068    0.00394
        350    54 -103.084207 -103.091025    0.006818  13.507    0.00068    0.00332
        351    55 -103.084172 -103.087060    0.002888  13.507    0.00067    0.00298
        352    55 -103.084163 -103.082575    0.001588  13.507    0.00065    0.00300
        353    55 -103.084187 -103.077939    0.006248  13.507    0.00063    0.00320
        354    54 -103.084241 -103.073321    0.010920  13.507    0.00061    0.00342
        355    56 -103.084328 -103.069106    0.015221  13.507    0.00060    0.00363
        356    60 -103.084437 -103.065808    0.018629  13.507    0.00060    0.00377
        357    56 -103.084567 -103.063049    0.021517  13.507    0.00060    0.00388
        358    56 -103.084705 -103.061563    0.023142  13.507    0.00061    0.00392
        359    55 -103.084844 -103.060997    0.023847  13.507    0.00061    0.00388
        360    55 -103.084973 -103.061284    0.023689  13.507    0.00061    0.00378
        361    55 -103.085087 -103.062631    0.022456  13.507    0.00058    0.00432
        362    53 -103.085210 -103.066726    0.018484  13.507    0.00053    0.00408
        363    48 -103.085286 -103.069796    0.015491  13.507    0.00053    0.00358
        364    47 -103.085329 -103.073916    0.011413  13.507    0.00053    0.00310
        365    48 -103.085264 -103.077586    0.007678  13.507    0.00050    0.00305
        366    47 -103.085249 -103.081857    0.003392  13.507    0.00049    0.00278
        367    49 -103.085194 -103.085072    0.000122  13.507    0.00049    0.00267
        368    49 -103.085144 -103.088051    0.002907  13.507    0.00048    0.00260
        369    55 -103.085073 -103.090226    0.005153  13.507    0.00048    0.00252
        370    56 -103.085002 -103.092138    0.007136  13.507    0.00047    0.00247
        371    55 -103.084928 -103.093739    0.008811  13.507    0.00047    0.00245
        372    49 -103.084859 -103.095264    0.010404  13.507    0.00046    0.00247
        373    49 -103.084794 -103.096509    0.011715  13.507    0.00045    0.00250
        374    55 -103.084734 -103.097371    0.012637  13.507    0.00045    0.00255
        375    53 -103.084677 -103.097823    0.013146  13.507    0.00044    0.00261
        376    54 -103.084622 -103.097850    0.013228  13.507    0.00043    0.00267
        377    53 -103.084569 -103.097517    0.012948  13.507    0.00043    0.00271
        378    53 -103.084518 -103.096889    0.012371  13.507    0.00042    0.00270
        379    55 -103.084470 -103.096060    0.011590  13.507    0.00041    0.00264
        380    53 -103.084426 -103.095100    0.010674  13.507    0.00040    0.00253
        381    53 -103.084386 -103.094327    0.009941  13.507    0.00040    0.00238
        382    53 -103.084351 -103.093329    0.008978  13.507    0.00040    0.00218
        383    53 -103.084322 -103.092264    0.007942  13.507    0.00040    0.00196
        384    53 -103.084299 -103.091028    0.006729  13.507    0.00041    0.00170
        385    53 -103.084282 -103.089752    0.005471  13.507    0.00041    0.00141
        386    53 -103.084266 -103.088341    0.004074  13.507    0.00041    0.00113
        387    53 -103.084255 -103.086641    0.002386  13.507    0.00041    0.00093
        388    53 -103.084249 -103.084768    0.000520  13.507    0.00041    0.00088
        389    53 -103.084246 -103.082832    0.001415  13.507    0.00040    0.00094
        390    53 -103.084251 -103.080826    0.003425  13.507    0.00040    0.00109
        391    53 -103.084217 -103.078871    0.005347  13.507    0.00034    0.00147
        392    53 -103.084245 -103.077613    0.006632  13.507    0.00033    0.00149
        393    53 -103.084262 -103.076420    0.007842  13.507    0.00032    0.00164
        394    54 -103.084295 -103.075567    0.008728  13.507    0.00031    0.00174
        395    53 -103.084327 -103.074842    0.009486  13.507    0.00030    0.00181
        396    53 -103.084369 -103.074288    0.010081  13.507    0.00030    0.00184
        397    58 -103.084415 -103.073864    0.010551  13.507    0.00030    0.00184
        398    54 -103.084466 -103.073657    0.010809  13.507    0.00030    0.00182
        399    54 -103.084518 -103.073728    0.010791  13.507    0.00031    0.00178

        ==> Orbital Optimization <==

            Jacobi Optimization converged.
            Total energy change: -1.637181e-03

        400    56 -103.086208 -103.453605    0.367397   2.416    0.00031    0.00172
        401    80 -103.052869 -104.002984    0.950115   2.416    0.03108    0.12411
        402    47 -103.022604 -103.847280    0.824676   2.416    0.03749    0.09522
        403    41 -103.005645 -103.651974    0.646329   2.416    0.03993    0.07261
        404    41 -102.991421 -103.453793    0.462373   2.416    0.03736    0.06185
        405    37 -102.991809 -103.316772    0.324963   2.416    0.03597    0.05602
        406    36 -102.994144 -103.161395    0.167251   2.416    0.03274    0.05362
        407    40 -103.005219 -103.028517    0.023298   2.416    0.03252    0.05170
        408    36 -103.014214 -102.933690    0.080524   2.416    0.02866    0.05309
        409    35 -103.027637 -102.882958    0.144679   2.416    0.02658    0.05463
        410    36 -103.034426 -102.847103    0.187323   2.416    0.02401    0.05273
        411    42 -103.039809 -102.878524    0.161285   2.416    0.02342    0.04779
        412    41 -103.047595 -102.895032    0.152563   2.416    0.02023    0.04563
        413    37 -103.054056 -102.873126    0.180931   2.416    0.01882    0.04102
        414    37 -103.060452 -102.832598    0.227854   2.416    0.01605    0.03892
        415    41 -103.066156 -102.797349    0.268806   2.416    0.01138    0.04291
        416    37 -103.074787 -102.776340    0.298448   2.416    0.00778    0.04497
        417    37 -103.083452 -102.762847    0.320605   2.416    0.00581    0.04551
        418    41 -103.090698 -102.768388    0.322310   2.416    0.00622    0.04267
        419    42 -103.096328 -102.788986    0.307342   2.416    0.00852    0.03888
        420    42 -103.104273 -102.833363    0.270910   2.416    0.00954    0.03561
        421    40 -103.109488 -102.872952    0.236537   2.416    0.01178    0.02939
        422    41 -103.112104 -102.926906    0.185198   2.416    0.01416    0.02282
        423    41 -103.113793 -102.988495    0.125298   2.416    0.01605    0.01626
        424    41 -103.114394 -103.051907    0.062487   2.416    0.01668    0.00964
        425    42 -103.113816 -103.110925    0.002891   2.416    0.01565    0.00777
        426    47 -103.109764 -103.163438    0.053674   2.416    0.01487    0.01285
        427    41 -103.107071 -103.210786    0.103715   2.416    0.01178    0.01751
        428    41 -103.102661 -103.243919    0.141258   2.416    0.00915    0.02191
        429    41 -103.099394 -103.268238    0.168844   2.416    0.00543    0.02450
        430    37 -103.095678 -103.278851    0.183172   2.416    0.00400    0.02544
        431    41 -103.092288 -103.274669    0.182380   2.416    0.00609    0.02475
        432    41 -103.088861 -103.257307    0.168446   2.416    0.00871    0.02259
        433    41 -103.085507 -103.230553    0.145046   2.416    0.01030    0.01970
        434    42 -103.083653 -103.200629    0.116977   2.416    0.01187    0.01619
        435    41 -103.082298 -103.164363    0.082065   2.416    0.01246    0.01256
        436    39 -103.081680 -103.129039    0.047358   2.416    0.01239    0.00923
        437    42 -103.080967 -103.097060    0.016094   2.416    0.01140    0.00711
        438    42 -103.080248 -103.071131    0.009117   2.416    0.00958    0.00692
        439    41 -103.080387 -103.045466    0.034921   2.416    0.00791    0.00831
        440    41 -103.081508 -103.022221    0.059287   2.416    0.00645    0.01066
        441    42 -103.082539 -103.004919    0.077620   2.416    0.00475    0.01265
        442    43 -103.085082 -102.996465    0.088617   2.416    0.00312    0.01368
        443    42 -103.087425 -102.992098    0.095327   2.416    0.00262    0.01382
        444    42 -103.090419 -102.994216    0.096203   2.416    0.00270    0.01313
        445    38 -103.092808 -102.997633    0.095175   2.416    0.00302    0.01218
        446    38 -103.095000 -103.006641    0.088359   2.416    0.00340    0.01095
        447    42 -103.095227 -103.015357    0.079870   2.416    0.00418    0.00997
        448    40 -103.096526 -103.031189    0.065337   2.416    0.00404    0.00805
        449    42 -103.096608 -103.045202    0.051406   2.416    0.00488    0.00589
        450    41 -103.097373 -103.064424    0.032948   2.416    0.00464    0.00408
        451    42 -103.097372 -103.081491    0.015881   2.416    0.00471    0.00277
        452    42 -103.096960 -103.098831    0.001871   2.416    0.00438    0.00316
        453    42 -103.096268 -103.114303    0.018035   2.416    0.00415    0.00413
        454    41 -103.094969 -103.125162    0.030193   2.416    0.00344    0.00541
        455    41 -103.094020 -103.133243    0.039222   2.416    0.00301    0.00632
        456    36 -103.092685 -103.137402    0.044718   2.416    0.00245    0.00704
        457    35 -103.090982 -103.140242    0.049260   2.416    0.00194    0.00756
        458    35 -103.089953 -103.141775    0.051822   2.416    0.00176    0.00787
        459    41 -103.088503 -103.143072    0.054569   2.416    0.00199    0.00752
        460    42 -103.086970 -103.139729    0.052758   2.416    0.00195    0.00716
        461    41 -103.085466 -103.136247    0.050781   2.416    0.00180    0.00661
        462    47 -103.084700 -103.129573    0.044873   2.416    0.00217    0.00573
        463    47 -103.083861 -103.121421    0.037560   2.416    0.00240    0.00484
        464    41 -103.083373 -103.112585    0.029212   2.416    0.00257    0.00401
        465    42 -103.082995 -103.104401    0.021405   2.416    0.00261    0.00316
        466    41 -103.082890 -103.094643    0.011753   2.416    0.00263    0.00259
        467    41 -103.082941 -103.085521    0.002580   2.416    0.00257    0.00255
        468    41 -103.083222 -103.077489    0.005733   2.416    0.00247    0.00280
        469    40 -103.083682 -103.071052    0.012629   2.416    0.00238    0.00317
        470    40 -103.084292 -103.066674    0.017617   2.416    0.00232    0.00329
        471    40 -103.084982 -103.062019    0.022964   2.416    0.00217    0.00354
        472    37 -103.085547 -103.058845    0.026702   2.416    0.00162    0.00403
        473    37 -103.086204 -103.057586    0.028618   2.416    0.00129    0.00436
        474    38 -103.086973 -103.057510    0.029464   2.416    0.00106    0.00446
        475    38 -103.087582 -103.058601    0.028982   2.416    0.00101    0.00430
        476    38 -103.088172 -103.060640    0.027532   2.416    0.00109    0.00392
        477    38 -103.088624 -103.063271    0.025353   2.416    0.00121    0.00343
        478    38 -103.089029 -103.066510    0.022518   2.416    0.00128    0.00308
        479    37 -103.089329 -103.070649    0.018680   2.416    0.00130    0.00271
        480    38 -103.089481 -103.073848    0.015633   2.416    0.00137    0.00239
        481    42 -103.089608 -103.077473    0.012135   2.416    0.00144    0.00205
        482    42 -103.089655 -103.080636    0.009019   2.416    0.00152    0.00171
        483    42 -103.089608 -103.084001    0.005607   2.416    0.00152    0.00148
        484    37 -103.089473 -103.087898    0.001575   2.416    0.00152    0.00166
        485    36 -103.089276 -103.092182    0.002906   2.416    0.00148    0.00160
        486    40 -103.088986 -103.095736    0.006750   2.416    0.00139    0.00157
        487    41 -103.088685 -103.098543    0.009858   2.416    0.00125    0.00172
        488    37 -103.088349 -103.100745    0.012396   2.416    0.00111    0.00195
        489    38 -103.088004 -103.102392    0.014388   2.416    0.00101    0.00208
        490    38 -103.087639 -103.103035    0.015396   2.416    0.00094    0.00218
        491    38 -103.087263 -103.103049    0.015786   2.416    0.00089    0.00224
        492    38 -103.086897 -103.102460    0.015563   2.416    0.00083    0.00226
        493    38 -103.086558 -103.101504    0.014946   2.416    0.00076    0.00228
        494    39 -103.086261 -103.100614    0.014353   2.416    0.00073    0.00226
        495    41 -103.086009 -103.099230    0.013221   2.416    0.00072    0.00220
        496    42 -103.085805 -103.097917    0.012112   2.416    0.00075    0.00209
        497    42 -103.085647 -103.096411    0.010764   2.416    0.00081    0.00193
        498    41 -103.085520 -103.094906    0.009386   2.416    0.00088    0.00171
        499    40 -103.085410 -103.093321    0.007912   2.416    0.00095    0.00145
        500    40 -103.085329 -103.091871    0.006542   2.416    0.00101    0.00113
        501    41 -103.085243 -103.090436    0.005194   2.416    0.00105    0.00077
        502    46 -103.085136 -103.088918    0.003782   2.416    0.00098    0.00055
        503    47 -103.085123 -103.087369    0.002245   2.416    0.00095    0.00055
        504    47 -103.085193 -103.085647    0.000454   2.416    0.00092    0.00076
        505    41 -103.085170 -103.083789    0.001380   2.416    0.00074    0.00112
        506    40 -103.085307 -103.082648    0.002660   2.416    0.00063    0.00131
        507    37 -103.085457 -103.081347    0.004110   2.416    0.00063    0.00135
        508    37 -103.085630 -103.080073    0.005557   2.416    0.00065    0.00129
        509    37 -103.085784 -103.078938    0.006846   2.416    0.00059    0.00127
        510    38 -103.085845 -103.078121    0.007724   2.416    0.00048    0.00134
        511    41 -103.086081 -103.077791    0.008291   2.416    0.00044    0.00133
        512    41 -103.086257 -103.077220    0.009037   2.416    0.00042    0.00132
        513    42 -103.086496 -103.077074    0.009422   2.416    0.00043    0.00129
        514    42 -103.086698 -103.077099    0.009599   2.416    0.00048    0.00122
        515    42 -103.086910 -103.077612    0.009298   2.416    0.00054    0.00112
        516    41 -103.087098 -103.078474    0.008623   2.416    0.00060    0.00100
        517    41 -103.087271 -103.079700    0.007570   2.416    0.00064    0.00087
        518    41 -103.087409 -103.081130    0.006279   2.416    0.00066    0.00071
        519    41 -103.087506 -103.082681    0.004826   2.416    0.00066    0.00056
        520    41 -103.087554 -103.084228    0.003326   2.416    0.00065    0.00044
        521    42 -103.087552 -103.085709    0.001844   2.416    0.00064    0.00042
        522    42 -103.087505 -103.087215    0.000289   2.416    0.00061    0.00043
        523    42 -103.087410 -103.088338    0.000928   2.416    0.00058    0.00049
        524    41 -103.087288 -103.089396    0.002108   2.416    0.00054    0.00057
        525    40 -103.087129 -103.090184    0.003055   2.416    0.00050    0.00066
        526    39 -103.086982 -103.090855    0.003874   2.416    0.00046    0.00074
        527    42 -103.086827 -103.091255    0.004428   2.416    0.00043    0.00080
        528    42 -103.086682 -103.091485    0.004804   2.416    0.00040    0.00085
        529    42 -103.086544 -103.091504    0.004960   2.416    0.00038    0.00089
        530    42 -103.086420 -103.091377    0.004957   2.416    0.00038    0.00090
        531    42 -103.086311 -103.091116    0.004804   2.416    0.00038    0.00090
        532    42 -103.086217 -103.090774    0.004557   2.416    0.00038    0.00088
        533    42 -103.086137 -103.090379    0.004242   2.416    0.00039    0.00085
        534    47 -103.086070 -103.089963    0.003893   2.416    0.00040    0.00080
        535    47 -103.086014 -103.089546    0.003532   2.416    0.00042    0.00073
        536    42 -103.085967 -103.089130    0.003163   2.416    0.00043    0.00066
        537    42 -103.085929 -103.088716    0.002788   2.416    0.00045    0.00058
        538    42 -103.085850 -103.088300    0.002450   2.416    0.00045    0.00052
        539    42 -103.085817 -103.087994    0.002177   2.416    0.00047    0.00044
        540    42 -103.085782 -103.087573    0.001792   2.416    0.00049    0.00039
        541    42 -103.085758 -103.087099    0.001341   2.416    0.00050    0.00035
        542    42 -103.085744 -103.086555    0.000811   2.416    0.00051    0.00033
        543    42 -103.085745 -103.085996    0.000251   2.416    0.00050    0.00032
        544    42 -103.085761 -103.085392    0.000369   2.416    0.00049    0.00034
        545    42 -103.085792 -103.084774    0.001018   2.416    0.00046    0.00039
        546    42 -103.085841 -103.084170    0.001671   2.416    0.00043    0.00044
        547    42 -103.085906 -103.083609    0.002297   2.416    0.00039    0.00050
        548    42 -103.085986 -103.083113    0.002873   2.416    0.00036    0.00054
        549    42 -103.086078 -103.082706    0.003372   2.416    0.00033    0.00057
        550    42 -103.086178 -103.082409    0.003769   2.416    0.00032    0.00060
        551    42 -103.086282 -103.082327    0.003954   2.416    0.00031    0.00060
        552    42 -103.086380 -103.082288    0.004092   2.416    0.00032    0.00060
        553    41 -103.086472 -103.082386    0.004086   2.416    0.00033    0.00058
        554    42 -103.086557 -103.082583    0.003974   2.416    0.00034    0.00055
        555    42 -103.086634 -103.082889    0.003745   2.416    0.00035    0.00050
        556    42 -103.086701 -103.083275    0.003425   2.416    0.00036    0.00045
        557    42 -103.086754 -103.083736    0.003019   2.416    0.00037    0.00039
        558    42 -103.086794 -103.084248    0.002546   2.416    0.00038    0.00032
        559    42 -103.086818 -103.084796    0.002023   2.416    0.00039    0.00025
        560    46 -103.086829 -103.085359    0.001469   2.416    0.00039    0.00019
        561    46 -103.086825 -103.085912    0.000913   2.416    0.00039    0.00014
        562    47 -103.086810 -103.086443    0.000367   2.416    0.00038    0.00014
        563    47 -103.086784 -103.086933    0.000149   2.416    0.00037    0.00017
        564    47 -103.086749 -103.087375    0.000626   2.416    0.00036    0.00021
        565    47 -103.086708 -103.087760    0.001052   2.416    0.00035    0.00026
        566    47 -103.086661 -103.088087    0.001426   2.416    0.00034    0.00030
        567    42 -103.086609 -103.088347    0.001738   2.416    0.00033    0.00034
        568    42 -103.086553 -103.088557    0.002004   2.416    0.00032    0.00037
        569    42 -103.086494 -103.088698    0.002203   2.416    0.00031    0.00040
        570    42 -103.086434 -103.088785    0.002351   2.416    0.00031    0.00041
        571    42 -103.086374 -103.088811    0.002437   2.416    0.00030    0.00042
        572    42 -103.086315 -103.088783    0.002469   2.416    0.00031    0.00042
        573    42 -103.086257 -103.088702    0.002445   2.416    0.00031    0.00041
        574    42 -103.086204 -103.088572    0.002369   2.416    0.00031    0.00039
        575    42 -103.086154 -103.088398    0.002244   2.416    0.00032    0.00036
        576    42 -103.086111 -103.088185    0.002074   2.416    0.00033    0.00033
        577    42 -103.086073 -103.087937    0.001864   2.416    0.00033    0.00029
        578    42 -103.086042 -103.087660    0.001618   2.416    0.00034    0.00024
        579    47 -103.086019 -103.087359    0.001341   2.416    0.00034    0.00020
        580    47 -103.086002 -103.087040    0.001037   2.416    0.00034    0.00015
        581    47 -103.085994 -103.086706    0.000712   2.416    0.00034    0.00012
        582    51 -103.085994 -103.086365    0.000371   2.416    0.00033    0.00010
        583    53 -103.086001 -103.086024    0.000022   2.416    0.00033    0.00011
        584    53 -103.086017 -103.085689    0.000328   2.416    0.00032    0.00014
        585    47 -103.086040 -103.085370    0.000670   2.416    0.00031    0.00018
        586    47 -103.086070 -103.085072    0.000997   2.416    0.00031    0.00021
        587    47 -103.086106 -103.084806    0.001300   2.416    0.00030    0.00025
        588    42 -103.086147 -103.084578    0.001569   2.416    0.00029    0.00027
        589    42 -103.086193 -103.084393    0.001799   2.416    0.00029    0.00029
        590    42 -103.086241 -103.084259    0.001982   2.416    0.00029    0.00030
        591    42 -103.086291 -103.084177    0.002114   2.416    0.00029    0.00031
        592    42 -103.086341 -103.084150    0.002191   2.416    0.00029    0.00031
        593    42 -103.086390 -103.084178    0.002211   2.416    0.00029    0.00030
        594    42 -103.086435 -103.084259    0.002176   2.416    0.00029    0.00028
        595    42 -103.086477 -103.084390    0.002087   2.416    0.00030    0.00027
        596    42 -103.086514 -103.084565    0.001948   2.416    0.00030    0.00024
        597    47 -103.086545 -103.084783    0.001762   2.416    0.00030    0.00021
        598    47 -103.086569 -103.085024    0.001545   2.416    0.00031    0.00018
        599    47 -103.086586 -103.085293    0.001293   2.416    0.00031    0.00015

        ==> Orbital Optimization <==

            Jacobi Optimization converged.
            Total energy change: -6.822125e-05

        600    47 -103.086665 -103.321013    0.234348   6.072    0.00031    0.00012
        601    79 -103.083883 -103.317342    0.233458   6.072    0.00564    0.03973
        602    54 -103.081280 -103.262521    0.181241   6.072    0.00678    0.02730
        603    53 -103.079284 -103.203317    0.124033   6.072    0.00582    0.02239
        604    45 -103.078156 -103.150598    0.072442   6.072    0.00477    0.01903
        605    41 -103.077949 -103.112931    0.034982   6.072    0.00447    0.01548
        606    41 -103.078385 -103.085883    0.007499   6.072    0.00425    0.01349
        607    41 -103.079292 -103.065934    0.013358   6.072    0.00375    0.01457
        608    38 -103.080449 -103.049162    0.031287   6.072    0.00327    0.01649
        609    37 -103.081466 -103.034666    0.046800   6.072    0.00309    0.01704
        610    47 -103.082192 -103.027466    0.054726   6.072    0.00294    0.01680
        611    47 -103.083193 -103.027247    0.055945   6.072    0.00256    0.01670
        612    42 -103.084225 -103.025455    0.058769   6.072    0.00223    0.01665
        613    43 -103.085337 -103.024683    0.060655   6.072    0.00200    0.01592
        614    43 -103.086338 -103.023988    0.062349   6.072    0.00215    0.01428
        615    42 -103.087145 -103.026018    0.061127   6.072    0.00236    0.01191
        616    46 -103.087368 -103.029686    0.057682   6.072    0.00264    0.01020
        617    42 -103.088010 -103.037842    0.050167   6.072    0.00228    0.00964
        618    47 -103.088363 -103.043960    0.044403   6.072    0.00208    0.00949
        619    42 -103.088673 -103.050495    0.038178   6.072    0.00170    0.01036
        620    42 -103.088778 -103.059349    0.029429   6.072    0.00154    0.01053
        621    42 -103.088875 -103.063439    0.025436   6.072    0.00153    0.01002
        622    47 -103.088867 -103.067999    0.020868   6.072    0.00153    0.00935
        623    47 -103.088776 -103.072131    0.016645   6.072    0.00150    0.00825
        624    49 -103.088334 -103.074918    0.013417   6.072    0.00134    0.00711
        625    53 -103.088246 -103.080604    0.007642   6.072    0.00143    0.00565
        626    52 -103.088068 -103.084997    0.003071   6.072    0.00144    0.00480
        627    47 -103.088058 -103.091987    0.003929   6.072    0.00132    0.00410
        628    42 -103.087939 -103.095959    0.008020   6.072    0.00123    0.00487
        629    47 -103.087857 -103.102776    0.014919   6.072    0.00114    0.00449
        630    42 -103.087729 -103.104473    0.016744   6.072    0.00106    0.00464
        631    49 -103.087604 -103.107437    0.019832   6.072    0.00098    0.00506
        632    47 -103.087448 -103.108455    0.021007   6.072    0.00090    0.00545
        633    46 -103.087290 -103.110097    0.022807   6.072    0.00078    0.00569
        634    47 -103.087134 -103.111556    0.024422   6.072    0.00066    0.00572
        635    47 -103.086969 -103.113320    0.026351   6.072    0.00056    0.00560
        636    47 -103.086774 -103.114523    0.027750   6.072    0.00051    0.00538
        637    47 -103.086553 -103.115461    0.028908   6.072    0.00052    0.00511
        638    42 -103.086308 -103.115620    0.029312   6.072    0.00059    0.00480
        639    42 -103.086054 -103.115061    0.029008   6.072    0.00068    0.00448
        640    47 -103.085799 -103.113620    0.027821   6.072    0.00077    0.00416
        641    47 -103.085559 -103.111416    0.025857   6.072    0.00084    0.00383
        642    43 -103.085337 -103.108498    0.023161   6.072    0.00089    0.00348
        643    42 -103.085149 -103.105086    0.019937   6.072    0.00091    0.00308
        644    42 -103.084999 -103.101323    0.016324   6.072    0.00090    0.00264
        645    42 -103.084890 -103.096968    0.012078   6.072    0.00087    0.00224
        646    47 -103.084826 -103.092145    0.007318   6.072    0.00082    0.00191
        647    46 -103.084794 -103.087059    0.002265   6.072    0.00077    0.00173
        648    46 -103.084822 -103.082071    0.002751   6.072    0.00071    0.00174
        649    46 -103.084908 -103.077247    0.007662   6.072    0.00065    0.00193
        650    47 -103.085046 -103.072784    0.012262   6.072    0.00059    0.00224
        651    47 -103.085231 -103.068854    0.016377   6.072    0.00053    0.00259
        652    47 -103.085454 -103.065615    0.019840   6.072    0.00047    0.00291
        653    47 -103.085706 -103.063172    0.022534   6.072    0.00042    0.00316
        654    47 -103.085974 -103.061603    0.024371   6.072    0.00039    0.00332
        655    47 -103.086246 -103.060935    0.025312   6.072    0.00037    0.00338
        656    47 -103.086511 -103.061164    0.025347   6.072    0.00038    0.00334
        657    47 -103.086758 -103.062246    0.024513   6.072    0.00041    0.00322
        658    43 -103.086978 -103.064098    0.022880   6.072    0.00044    0.00303
        659    43 -103.087165 -103.066620    0.020545   6.072    0.00047    0.00287
        660    49 -103.087307 -103.070149    0.017158   6.072    0.00049    0.00260
        661    48 -103.087401 -103.073252    0.014149   6.072    0.00050    0.00235
        662    47 -103.087454 -103.076864    0.010590   6.072    0.00050    0.00214
        663    47 -103.087469 -103.080222    0.007247   6.072    0.00049    0.00196
        664    47 -103.087451 -103.083552    0.003899   6.072    0.00048    0.00181
        665    47 -103.087403 -103.086510    0.000892   6.072    0.00047    0.00169
        666    47 -103.087330 -103.089157    0.001827   6.072    0.00045    0.00160
        667    47 -103.087238 -103.091378    0.004139   6.072    0.00045    0.00154
        668    47 -103.087134 -103.093209    0.006075   6.072    0.00045    0.00152
        669    47 -103.087023 -103.094634    0.007611   6.072    0.00045    0.00154
        670    47 -103.086909 -103.095695    0.008786   6.072    0.00045    0.00158
        671    48 -103.086798 -103.096419    0.009621   6.072    0.00045    0.00164
        672    48 -103.086692 -103.096859    0.010167   6.072    0.00044    0.00171
        673    49 -103.086592 -103.097053    0.010461   6.072    0.00044    0.00177
        674    49 -103.086500 -103.097045    0.010545   6.072    0.00042    0.00182
        675    48 -103.086416 -103.096866    0.010450   6.072    0.00040    0.00187
        676    49 -103.086341 -103.096538    0.010197   6.072    0.00038    0.00191
        677    49 -103.086275 -103.096076    0.009801   6.072    0.00036    0.00195
        678    47 -103.086217 -103.095490    0.009272   6.072    0.00035    0.00198
        679    42 -103.086168 -103.094782    0.008614   6.072    0.00034    0.00199
        680    47 -103.086128 -103.093972    0.007844   6.072    0.00034    0.00197
        681    48 -103.086096 -103.093057    0.006961   6.072    0.00035    0.00192
        682    49 -103.086073 -103.092064    0.005992   6.072    0.00037    0.00183
        683    48 -103.086057 -103.091006    0.004949   6.072    0.00039    0.00170
        684    47 -103.086050 -103.089914    0.003864   6.072    0.00040    0.00155
        685    47 -103.086050 -103.088812    0.002762   6.072    0.00042    0.00137
        686    47 -103.086056 -103.087731    0.001674   6.072    0.00042    0.00119
        687    47 -103.086068 -103.086705    0.000637   6.072    0.00043    0.00100
        688    47 -103.086080 -103.085831    0.000249   6.072    0.00042    0.00081
        689    47 -103.086095 -103.085025    0.001070   6.072    0.00040    0.00071
        690    47 -103.086112 -103.084282    0.001831   6.072    0.00038    0.00072
        691    52 -103.086132 -103.083602    0.002530   6.072    0.00036    0.00080
        692    51 -103.086155 -103.082996    0.003160   6.072    0.00033    0.00092
        693    52 -103.086181 -103.082462    0.003719   6.072    0.00030    0.00103
        694    47 -103.086210 -103.082007    0.004203   6.072    0.00028    0.00114
        695    52 -103.086241 -103.081619    0.004622   6.072    0.00026    0.00122
        696    47 -103.086276 -103.081299    0.004977   6.072    0.00024    0.00127
        697    47 -103.086312 -103.081033    0.005279   6.072    0.00023    0.00130
        698    52 -103.086352 -103.080819    0.005532   6.072    0.00022    0.00130
        699    47 -103.086393 -103.080653    0.005740   6.072    0.00022    0.00128
        700    48 -103.086437 -103.080545    0.005893   6.072    0.00022    0.00124
        701    49 -103.086484 -103.080505    0.005980   6.072    0.00023    0.00123
        702    55 -103.086525 -103.080728    0.005797   6.072    0.00023    0.00116
        703    48 -103.086569 -103.080928    0.005641   6.072    0.00023    0.00110
        704    48 -103.086611 -103.081278    0.005333   6.072    0.00023    0.00103
        705    49 -103.086651 -103.081722    0.004929   6.072    0.00024    0.00093
        706    48 -103.086687 -103.082316    0.004371   6.072    0.00024    0.00082
        707    48 -103.086717 -103.083026    0.003691   6.072    0.00024    0.00070
        708    52 -103.086740 -103.083855    0.002886   6.072    0.00024    0.00058
        709    48 -103.086756 -103.084758    0.001999   6.072    0.00024    0.00048
        710    48 -103.086762 -103.085720    0.001042   6.072    0.00024    0.00041
        711    48 -103.086758 -103.086689    0.000068   6.072    0.00024    0.00038
        712    48 -103.086744 -103.087634    0.000891   6.072    0.00024    0.00039
        713    48 -103.086721 -103.088511    0.001791   6.072    0.00024    0.00044
        714    48 -103.086689 -103.089292    0.002602   6.072    0.00023    0.00051
        715    48 -103.086651 -103.089949    0.003298   6.072    0.00023    0.00059
        716    49 -103.086609 -103.090470    0.003861   6.072    0.00023    0.00067
        717    49 -103.086564 -103.090845    0.004281   6.072    0.00022    0.00074
        718    49 -103.086517 -103.091074    0.004557   6.072    0.00022    0.00079
        719    52 -103.086472 -103.091162    0.004691   6.072    0.00021    0.00083
        720    52 -103.086429 -103.091116    0.004688   6.072    0.00021    0.00085
        721    52 -103.086388 -103.090951    0.004563   6.072    0.00020    0.00085
        722    53 -103.086352 -103.090678    0.004326   6.072    0.00020    0.00084
        723    52 -103.086321 -103.090316    0.003994   6.072    0.00020    0.00082
        724    53 -103.086295 -103.089879    0.003584   6.072    0.00020    0.00078
        725    53 -103.086275 -103.089386    0.003111   6.072    0.00021    0.00073
        726    52 -103.086260 -103.088853    0.002594   6.072    0.00021    0.00067
        727    52 -103.086250 -103.088300    0.002050   6.072    0.00021    0.00060
        728    52 -103.086245 -103.087739    0.001494   6.072    0.00022    0.00052
        729    52 -103.086244 -103.087188    0.000943   6.072    0.00022    0.00044
        730    52 -103.086248 -103.086656    0.000408   6.072    0.00022    0.00036
        731    52 -103.086255 -103.086159    0.000096   6.072    0.00022    0.00029
        732    52 -103.086266 -103.085699    0.000567   6.072    0.00022    0.00024
        733    52 -103.086279 -103.085288    0.000991   6.072    0.00022    0.00024
        734    52 -103.086294 -103.084926    0.001368   6.072    0.00022    0.00027
        735    52 -103.086311 -103.084616    0.001695   6.072    0.00021    0.00033
        736    52 -103.086328 -103.084358    0.001970   6.072    0.00020    0.00039
        737    52 -103.086346 -103.084152    0.002194   6.072    0.00020    0.00045
        738    52 -103.086364 -103.083994    0.002370   6.072    0.00019    0.00051
        739    52 -103.086382 -103.083883    0.002499   6.072    0.00018    0.00056
        740    52 -103.086400 -103.083818    0.002582   6.072    0.00018    0.00060
        741    52 -103.086417 -103.083795    0.002622   6.072    0.00017    0.00063
        742    52 -103.086434 -103.083810    0.002624   6.072    0.00017    0.00064
        743    55 -103.086450 -103.083864    0.002586   6.072    0.00017    0.00064
        744    55 -103.086465 -103.083954    0.002511   6.072    0.00017    0.00063
        745    52 -103.086480 -103.084076    0.002404   6.072    0.00018    0.00060
        746    52 -103.086493 -103.084230    0.002263   6.072    0.00018    0.00057
        747    55 -103.086505 -103.084411    0.002094   6.072    0.00018    0.00052
        748    48 -103.086516 -103.084616    0.001900   6.072    0.00019    0.00046
        749    49 -103.086525 -103.084846    0.001680   6.072    0.00019    0.00040
        750    48 -103.086533 -103.085090    0.001443   6.072    0.00019    0.00033
        751    48 -103.086539 -103.085351    0.001188   6.072    0.00020    0.00027
        752    48 -103.086544 -103.085619    0.000924   6.072    0.00020    0.00021
        753    49 -103.086546 -103.085894    0.000652   6.072    0.00020    0.00016
        754    48 -103.086547 -103.086169    0.000378   6.072    0.00020    0.00015
        755    53 -103.086545 -103.086443    0.000103   6.072    0.00019    0.00018
        756    53 -103.086543 -103.086706    0.000164   6.072    0.00019    0.00022
        757    48 -103.086538 -103.086960    0.000423   6.072    0.00019    0.00027
        758    55 -103.086531 -103.087202    0.000672   6.072    0.00019    0.00032
        759    54 -103.086523 -103.087422    0.000900   6.072    0.00018    0.00036
        760    55 -103.086512 -103.087624    0.001112   6.072    0.00018    0.00040
        761    54 -103.086501 -103.087799    0.001298   6.072    0.00018    0.00043
        762    54 -103.086488 -103.087947    0.001459   6.072    0.00017    0.00045
        763    55 -103.086474 -103.088062    0.001589   6.072    0.00017    0.00046
        764    52 -103.086459 -103.088144    0.001685   6.072    0.00017    0.00046
        765    52 -103.086443 -103.088189    0.001745   6.072    0.00017    0.00045
        766    52 -103.086428 -103.088194    0.001766   6.072    0.00017    0.00043
        767    55 -103.086412 -103.088158    0.001746   6.072    0.00017    0.00040
        768    59 -103.086398 -103.088082    0.001684   6.072    0.00017    0.00037
        769    52 -103.086383 -103.087966    0.001583   6.072    0.00017    0.00033
        770    51 -103.086371 -103.087811    0.001440   6.072    0.00017    0.00029
        771    53 -103.086359 -103.087623    0.001264   6.072    0.00017    0.00025
        772    52 -103.086350 -103.087403    0.001054   6.072    0.00017    0.00020
        773    52 -103.086343 -103.087160    0.000818   6.072    0.00017    0.00016
        774    52 -103.086338 -103.086899    0.000561   6.072    0.00017    0.00014
        775    59 -103.086335 -103.086627    0.000292   6.072    0.00017    0.00013
        776    53 -103.086335 -103.086352    0.000017   6.072    0.00017    0.00015
        777    59 -103.086337 -103.086080    0.000257   6.072    0.00017    0.00018
        778    52 -103.086341 -103.085821    0.000521   6.072    0.00017    0.00021
        779    52 -103.086348 -103.085578    0.000770   6.072    0.00017    0.00024
        780    52 -103.086356 -103.085359    0.000997   6.072    0.00017    0.00027
        781    52 -103.086366 -103.085168    0.001198   6.072    0.00017    0.00030
        782    52 -103.086377 -103.085008    0.001368   6.072    0.00017    0.00032
        783    52 -103.086389 -103.084882    0.001506   6.072    0.00017    0.00033
        784    52 -103.086401 -103.084792    0.001609   6.072    0.00017    0.00034
        785    52 -103.086414 -103.084737    0.001676   6.072    0.00017    0.00034
        786    52 -103.086426 -103.084717    0.001710   6.072    0.00016    0.00034
        787    55 -103.086439 -103.084731    0.001707   6.072    0.00017    0.00033
        788    54 -103.086450 -103.084776    0.001674   6.072    0.00017    0.00031
        789    55 -103.086461 -103.084852    0.001610   6.072    0.00017    0.00029
        790    52 -103.086471 -103.084953    0.001518   6.072    0.00017    0.00026
        791    52 -103.086480 -103.085079    0.001401   6.072    0.00017    0.00024
[...]
        853    35 -109.095056 -109.095508    0.000452   1.040    0.00056    0.00025
        854    37 -109.095034 -109.095635    0.000601   1.040    0.00052    0.00027
        855    35 -109.095008 -109.095730    0.000722   1.040    0.00046    0.00029
        856    35 -109.094969 -109.095809    0.000840   1.040    0.00038    0.00031
        857    35 -109.094928 -109.095852    0.000924   1.040    0.00030    0.00033
        858    33 -109.094882 -109.095872    0.000990   1.040    0.00023    0.00033
        859    32 -109.094838 -109.095857    0.001020   1.040    0.00019    0.00032
        860    34 -109.094793 -109.095815    0.001021   1.040    0.00019    0.00031
        861    32 -109.094754 -109.095739    0.000985   1.040    0.00022    0.00028
        862    32 -109.094718 -109.095634    0.000916   1.040    0.00026    0.00025
        863    32 -109.094689 -109.095502    0.000813   1.040    0.00030    0.00022
        864    33 -109.094669 -109.095349    0.000680   1.040    0.00032    0.00018
        865    34 -109.094656 -109.095183    0.000527   1.040    0.00034    0.00015
        866    37 -109.094653 -109.095009    0.000356   1.040    0.00034    0.00013
        867    38 -109.094657 -109.094838    0.000181   1.040    0.00034    0.00013
        868    38 -109.094669 -109.094672    0.000003   1.040    0.00032    0.00014
        869    38 -109.094687 -109.094522    0.000165   1.040    0.00029    0.00016
        870    38 -109.094711 -109.094391    0.000320   1.040    0.00026    0.00018
        871    38 -109.094739 -109.094285    0.000454   1.040    0.00023    0.00020
        872    38 -109.094769 -109.094205    0.000564   1.040    0.00021    0.00021
        873    38 -109.094799 -109.094152    0.000647   1.040    0.00020    0.00022
        874    35 -109.094829 -109.094124    0.000705   1.040    0.00021    0.00021
        875    35 -109.094857 -109.094123    0.000734   1.040    0.00024    0.00021
        876    35 -109.094881 -109.094141    0.000740   1.040    0.00027    0.00019
        877    34 -109.094902 -109.094176    0.000726   1.040    0.00030    0.00018
        878    31 -109.094917 -109.094224    0.000693   1.040    0.00032    0.00016
        879    32 -109.094929 -109.094280    0.000650   1.040    0.00034    0.00014
        880    34 -109.094935 -109.094344    0.000592   1.040    0.00035    0.00012
        881    34 -109.094939 -109.094410    0.000528   1.040    0.00035    0.00011
        882    35 -109.094938 -109.094473    0.000465   1.040    0.00034    0.00011
        883    35 -109.094935 -109.094533    0.000402   1.040    0.00032    0.00012
        884    33 -109.094930 -109.094590    0.000339   1.040    0.00029    0.00012
        885    33 -109.094923 -109.094646    0.000277   1.040    0.00025    0.00013
        886    30 -109.094915 -109.094697    0.000218   1.040    0.00022    0.00014
        887    31 -109.094907 -109.094748    0.000159   1.040    0.00019    0.00015
        888    32 -109.094899 -109.094795    0.000103   1.040    0.00016    0.00015
        889    32 -109.094890 -109.094840    0.000049   1.040    0.00014    0.00015
        890    33 -109.094881 -109.094882    0.000001   1.040    0.00013    0.00014
        891    34 -109.094872 -109.094919    0.000048   1.040    0.00014    0.00013
        892    34 -109.094863 -109.094953    0.000090   1.040    0.00015    0.00012
        893    33 -109.094853 -109.094981    0.000128   1.040    0.00016    0.00011
        894    35 -109.094845 -109.095004    0.000159   1.040    0.00017    0.00010
        895    35 -109.094836 -109.095019    0.000184   1.040    0.00018    0.00009
        896    35 -109.094827 -109.095028    0.000201   1.040    0.00018    0.00009
        897    35 -109.094819 -109.095030    0.000211   1.040    0.00018    0.00009
        898    35 -109.094812 -109.095024    0.000211   1.040    0.00017    0.00010
        899    35 -109.094806 -109.095011    0.000205   1.040    0.00017    0.00010
        900    35 -109.094802 -109.094991    0.000189   1.040    0.00016    0.00010
        901    35 -109.094799 -109.094966    0.000168   1.040    0.00015    0.00011
        902    35 -109.094797 -109.094936    0.000140   1.040    0.00015    0.00011
        903    35 -109.094797 -109.094904    0.000106   1.040    0.00015    0.00011
        904    35 -109.094798 -109.094868    0.000070   1.040    0.00015    0.00011
        905    35 -109.094801 -109.094833    0.000032   1.040    0.00016    0.00010
        906    35 -109.094804 -109.094797    0.000007   1.040    0.00017    0.00010
        907    35 -109.094809 -109.094764    0.000045   1.040    0.00018    0.00009
        908    35 -109.094813 -109.094733    0.000080   1.040    0.00019    0.00008
        909    38 -109.094819 -109.094708    0.000111   1.040    0.00019    0.00008
        910    38 -109.094824 -109.094683    0.000140   1.040    0.00020    0.00007
        911    38 -109.094829 -109.094665    0.000163   1.040    0.00020    0.00007
        912    38 -109.094833 -109.094651    0.000182   1.040    0.00019    0.00007
        913    35 -109.094836 -109.094640    0.000196   1.040    0.00019    0.00007
        914    35 -109.094839 -109.094635    0.000204   1.040    0.00018    0.00007
        915    35 -109.094841 -109.094632    0.000209   1.040    0.00016    0.00008
        916    35 -109.094841 -109.094633    0.000208   1.040    0.00015    0.00008
        917    35 -109.094841 -109.094636    0.000205   1.040    0.00014    0.00008
        918    35 -109.094840 -109.094641    0.000199   1.040    0.00013    0.00008
        919    38 -109.094838 -109.094649    0.000190   1.040    0.00013    0.00008
        920    35 -109.094837 -109.094656    0.000181   1.040    0.00012    0.00008
        921    38 -109.094834 -109.094667    0.000167   1.040    0.00012    0.00008
        922    35 -109.094833 -109.094675    0.000158   1.040    0.00013    0.00007
        923    39 -109.094830 -109.094687    0.000142   1.040    0.00013    0.00006
        924    35 -109.094829 -109.094699    0.000130   1.040    0.00013    0.00006
        925    39 -109.094826 -109.094710    0.000116   1.040    0.00014    0.00005
        926    39 -109.094825 -109.094723    0.000102   1.040    0.00014    0.00005
        927    40 -109.094823 -109.094735    0.000089   1.040    0.00014    0.00004
        928    39 -109.094823 -109.094748    0.000075   1.040    0.00014    0.00004
        929    40 -109.094822 -109.094759    0.000063   1.040    0.00014    0.00005
        930    36 -109.094821 -109.094771    0.000050   1.040    0.00014    0.00005
        931    40 -109.094820 -109.094781    0.000039   1.040    0.00013    0.00005
        932    35 -109.094820 -109.094792    0.000028   1.040    0.00013    0.00006
        933    36 -109.094820 -109.094801    0.000019   1.040    0.00013    0.00006
        934    35 -109.094819 -109.094807    0.000012   1.040    0.00013    0.00006
        935    35 -109.094819 -109.094813    0.000006   1.040    0.00013    0.00006
        936    35 -109.094818 -109.094816    0.000001   1.040    0.00013    0.00006
        937    35 -109.094817 -109.094818    0.000001   1.040    0.00013    0.00006
        938    35 -109.094816 -109.094818    0.000002   1.040    0.00013    0.00006
        939    35 -109.094816 -109.094816    0.000000   1.040    0.00013    0.00005
        940    35 -109.094815 -109.094813    0.000002   1.040    0.00013    0.00005
        941    38 -109.094814 -109.094808    0.000006   1.040    0.00013    0.00005
        942    35 -109.094814 -109.094800    0.000013   1.040    0.00013    0.00005
        943    35 -109.094813 -109.094794    0.000019   1.040    0.00013    0.00005
        944    38 -109.094812 -109.094785    0.000027   1.040    0.00013    0.00005
        945    35 -109.094812 -109.094774    0.000037   1.040    0.00012    0.00005
        946    35 -109.094811 -109.094766    0.000046   1.040    0.00012    0.00005
        947    35 -109.094811 -109.094755    0.000056   1.040    0.00011    0.00005
        948    35 -109.094811 -109.094746    0.000065   1.040    0.00011    0.00006
        949    35 -109.094811 -109.094736    0.000075   1.040    0.00011    0.00006
        950    34 -109.094811 -109.094728    0.000084   1.040    0.00011    0.00006
        951    34 -109.094812 -109.094720    0.000092   1.040    0.00011    0.00006
        952    35 -109.094813 -109.094713    0.000099   1.040    0.00011    0.00005
        953    35 -109.094813 -109.094708    0.000105   1.040    0.00011    0.00005
        954    35 -109.094815 -109.094704    0.000111   1.040    0.00011    0.00005
        955    35 -109.094816 -109.094701    0.000114   1.040    0.00011    0.00005
        956    35 -109.094817 -109.094700    0.000117   1.040    0.00011    0.00004
        957    38 -109.094819 -109.094701    0.000117   1.040    0.00011    0.00004
        958    38 -109.094820 -109.094703    0.000117   1.040    0.00011    0.00004
        959    39 -109.094822 -109.094707    0.000115   1.040    0.00011    0.00004
        960    39 -109.094823 -109.094711    0.000112   1.040    0.00011    0.00004
        961    39 -109.094825 -109.094717    0.000108   1.040    0.00011    0.00005
        962    39 -109.094826 -109.094723    0.000103   1.040    0.00010    0.00005
        963    39 -109.094828 -109.094731    0.000097   1.040    0.00010    0.00005
        964    39 -109.094829 -109.094739    0.000090   1.040    0.00010    0.00005
        965    39 -109.094830 -109.094747    0.000083   1.040    0.00010    0.00005
        966    39 -109.094831 -109.094755    0.000076   1.040    0.00010    0.00005
        967    39 -109.094832 -109.094763    0.000069   1.040    0.00010    0.00005
        968    39 -109.094833 -109.094771    0.000062   1.040    0.00010    0.00004
        969    39 -109.094833 -109.094778    0.000055   1.040    0.00010    0.00004
        970    42 -109.094834 -109.094785    0.000049   1.040    0.00011    0.00004
        971    39 -109.094833 -109.094790    0.000043   1.040    0.00011    0.00004
        972    42 -109.094833 -109.094795    0.000039   1.040    0.00011    0.00004
        973    38 -109.094832 -109.094798    0.000034   1.040    0.00011    0.00004
        974    42 -109.094832 -109.094801    0.000031   1.040    0.00010    0.00004
        975    38 -109.094831 -109.094802    0.000029   1.040    0.00010    0.00004
        976    42 -109.094831 -109.094802    0.000028   1.040    0.00010    0.00004
        977    38 -109.094829 -109.094801    0.000028   1.040    0.00010    0.00004
        978    42 -109.094828 -109.094799    0.000029   1.040    0.00010    0.00004

        ==> Orbital Optimization <==

            Jacobi Optimization converged.
            Total energy change: -6.996835e-07

        979    70 -109.094984 -109.091730    0.003254   1.040    0.00061    0.00087
        980    42 -109.095183 -109.093093    0.002090   1.040    0.00061    0.00053
        981    37 -109.095299 -109.093984    0.001316   1.040    0.00054    0.00047
        982    36 -109.095313 -109.094408    0.000906   1.040    0.00044    0.00044
        983    37 -109.095274 -109.094562    0.000712   1.040    0.00042    0.00037
        984    37 -109.095225 -109.094583    0.000643   1.040    0.00044    0.00026
        985    40 -109.095184 -109.094568    0.000616   1.040    0.00039    0.00021
        986    40 -109.095140 -109.094618    0.000521   1.040    0.00030    0.00027
        987    38 -109.095090 -109.094820    0.000270   1.040    0.00028    0.00030
        988    37 -109.095037 -109.095142    0.000106   1.040    0.00030    0.00030
        989    35 -109.094981 -109.095498    0.000517   1.040    0.00030    0.00029
        990    34 -109.094924 -109.095765    0.000841   1.040    0.00025    0.00029
        991    32 -109.094872 -109.095878    0.001006   1.040    0.00019    0.00029
        992    32 -109.094818 -109.095837    0.001018   1.040    0.00018    0.00027
        993    36 -109.094776 -109.095681    0.000905   1.040    0.00019    0.00025
        994    36 -109.094741 -109.095487    0.000746   1.040    0.00020    0.00022
        995    37 -109.094718 -109.095303    0.000585   1.040    0.00020    0.00020
        996    37 -109.094708 -109.095171    0.000462   1.040    0.00019    0.00018
        997    38 -109.094710 -109.095090    0.000380   1.040    0.00020    0.00016
        998    41 -109.094720 -109.095042    0.000321   1.040    0.00020    0.00015
        999    41 -109.094736 -109.095001    0.000265   1.040    0.00021    0.00015

        ==> Orbital Optimization <==

            Jacobi Optimization converged.
            Total energy change: -1.575179e-08

       1000    41 -109.094757 -109.094330    0.000427   1.442    0.00021    0.00015
       1001    39 -109.094765 -109.095004    0.000239   1.442    0.00024    0.00018
       1002    40 -109.094782 -109.094937    0.000155   1.442    0.00025    0.00016
       1003    41 -109.094798 -109.094843    0.000045   1.442    0.00024    0.00017
       1004    38 -109.094812 -109.094744    0.000069   1.442    0.00023    0.00018
       1005    37 -109.094823 -109.094669    0.000155   1.442    0.00021    0.00018
       1006    36 -109.094834 -109.094627    0.000207   1.442    0.00018    0.00018
       1007    35 -109.094841 -109.094610    0.000231   1.442    0.00016    0.00017
       1008    35 -109.094845 -109.094601    0.000244   1.442    0.00015    0.00017
       1009    35 -109.094845 -109.094593    0.000253   1.442    0.00013    0.00016
       1010    37 -109.094844 -109.094581    0.000263   1.442    0.00013    0.00015
       1011    35 -109.094842 -109.094562    0.000280   1.442    0.00013    0.00014
       1012    35 -109.094840 -109.094544    0.000295   1.442    0.00014    0.00013
       1013    33 -109.094837 -109.094529    0.000308   1.442    0.00015    0.00011
       1014    34 -109.094836 -109.094522    0.000313   1.442    0.00015    0.00010
       1015    34 -109.094835 -109.094526    0.000309   1.442    0.00016    0.00010
       1016    35 -109.094834 -109.094538    0.000296   1.442    0.00015    0.00010
       1017    35 -109.094833 -109.094557    0.000277   1.442    0.00015    0.00010
       1018    35 -109.094833 -109.094577    0.000256   1.442    0.00014    0.00011
       1019    35 -109.094833 -109.094597    0.000235   1.442    0.00012    0.00012
       1020    35 -109.094833 -109.094616    0.000216   1.442    0.00011    0.00012
       1021    35 -109.094834 -109.094635    0.000199   1.442    0.00010    0.00012
       1022    35 -109.094835 -109.094655    0.000180   1.442    0.00010    0.00012
       1023    34 -109.094838 -109.094678    0.000160   1.442    0.00010    0.00012
       1024    35 -109.094841 -109.094704    0.000137   1.442    0.00010    0.00011
       1025    35 -109.094844 -109.094734    0.000111   1.442    0.00011    0.00010
       1026    35 -109.094848 -109.094766    0.000081   1.442    0.00012    0.00009
       1027    35 -109.094851 -109.094800    0.000051   1.442    0.00012    0.00008
       1028    35 -109.094854 -109.094835    0.000020   1.442    0.00013    0.00008
       1029    35 -109.094856 -109.094868    0.000012   1.442    0.00014    0.00007
       1030    37 -109.094856 -109.094900    0.000043   1.442    0.00014    0.00007
       1031    37 -109.094855 -109.094926    0.000071   1.442    0.00014    0.00007
       1032    37 -109.094853 -109.094950    0.000097   1.442    0.00014    0.00008
       1033    37 -109.094849 -109.094967    0.000118   1.442    0.00013    0.00008
       1034    36 -109.094844 -109.094978    0.000134   1.442    0.00013    0.00009
       1035    32 -109.094838 -109.094981    0.000142   1.442    0.00012    0.00009
       1036    35 -109.094832 -109.094979    0.000147   1.442    0.00011    0.00009
       1037    32 -109.094826 -109.094965    0.000140   1.442    0.00010    0.00009
       1038    33 -109.094819 -109.094948    0.000129   1.442    0.00010    0.00009
       1039    33 -109.094813 -109.094922    0.000108   1.442    0.00010    0.00008
       1040    33 -109.094808 -109.094892    0.000084   1.442    0.00010    0.00008

        ==> Orbital Optimization <==

            Jacobi Optimization converged.
            Total energy change: -2.676333e-08

       1041    50 -109.094831 -109.094196    0.000635   1.442    0.00012    0.00018
       1042    41 -109.094857 -109.094408    0.000449   1.442    0.00014    0.00013
       1043    35 -109.094874 -109.094569    0.000304   1.442    0.00014    0.00011
       1044    34 -109.094878 -109.094659    0.000219   1.442    0.00012    0.00010
       1045    35 -109.094874 -109.094689    0.000185   1.442    0.00011    0.00009
       1046    35 -109.094868 -109.094684    0.000184   1.442    0.00011    0.00007
       1047    37 -109.094861 -109.094664    0.000197   1.442    0.00010    0.00007
       1048    37 -109.094855 -109.094657    0.000198   1.442    0.00010    0.00009
       1049    35 -109.094849 -109.094681    0.000168   1.442    0.00010    0.00010
       1050    34 -109.094842 -109.094732    0.000111   1.442    0.00010    0.00011
       1051    34 -109.094835 -109.094790    0.000045   1.442    0.00010    0.00011
       1052    32 -109.094828 -109.094836    0.000008   1.442    0.00009    0.00011
       1053    33 -109.094822 -109.094853    0.000031   1.442    0.00009    0.00011
       1054    33 -109.094816 -109.094841    0.000025   1.442    0.00009    0.00010
       1055    33 -109.094812 -109.094809    0.000003   1.442    0.00010    0.00009

        ==> Orbital Optimization <==

            Jacobi Optimization converged.
            Total energy change: -2.219792e-09


      v2RDM iterations converged!

      v2RDM total spin [S(S+1)]:             0.000004
    * v2RDM total energy:           -109.094812016504



Properties will be evaluated at   0.000000,   0.000000,   0.000000 Bohr


Properties will be evaluated at   0.000000,   0.000000,   0.000000 Bohr

  Mulliken Charges: (a.u.)

   Center  Symbol    Alpha    Beta     Spin     Total
       1     N     3.50000  3.50000  0.00000  0.00000
       2     N     3.50000  3.50000  0.00000  0.00000

   Total alpha =  7.00000, Total beta =  7.00000, Total charge =  0.00000

 # Natural Orbital Occupation Numbers (alpha) #
 Irrep: 1
      1:  1.0000000
      2:  1.0000000
      3:  0.9906705
      4:  0.0000000
      5:  0.0000000
      6:  0.0000000
      7:  0.0000000

 Irrep: 2
      1:  0.0000000

 Irrep: 3
      1:  0.0327590
      2:  0.0000000
      3:  0.0000000

 Irrep: 4
      1:  0.0327588
      2:  0.0000000
      3:  0.0000000

 Irrep: 5
      1:  0.0000000

 Irrep: 6
      1:  1.0000000
      2:  1.0000000
      3:  0.0093252
      4:  0.0000000
      5:  0.0000000
      6:  0.0000000
      7:  0.0000000

 Irrep: 7
      1:  0.9672432
      2:  0.0000000
      3:  0.0000000

 Irrep: 8
      1:  0.9672433
      2:  0.0000000
      3:  0.0000000


 # Natural Orbital Occupation Numbers (beta) #
 Irrep: 1
      1:  1.0000000
      2:  1.0000000
      3:  0.9905832
      4:  0.0000000
      5:  0.0000000
      6:  0.0000000
      7:  0.0000000

 Irrep: 2
      1:  0.0000000

 Irrep: 3
      1:  0.0327256
      2:  0.0000000
      3:  0.0000000

 Irrep: 4
      1:  0.0327255
      2:  0.0000000
      3:  0.0000000

 Irrep: 5
      1:  0.0000000

 Irrep: 6
      1:  1.0000000
      2:  1.0000000
      3:  0.0094327
      4:  0.0000000
      5:  0.0000000
      6:  0.0000000
      7:  0.0000000

 Irrep: 7
      1:  0.9672664
      2:  0.0000000
      3:  0.0000000

 Irrep: 8
      1:  0.9672666
      2:  0.0000000
      3:  0.0000000


*** tstop() called on ubuntu at Wed Aug 19 08:54:20 2015
Module time:
	user time   =       2.65 seconds =       0.04 minutes
	system time =       0.00 seconds =       0.00 minutes
	total time  =          3 seconds =       0.05 minutes
Total time:
	user time   =       8.85 seconds =       0.15 minutes
	system time =       0.05 seconds =       0.00 minutes
	total time  =          9 seconds =       0.15 minutes

*** PSI4 exiting successfully. Buy a developer a beer!
