    -----------------------------------------------------------------------
          Psi4: An Open-Source Ab Initio Electronic Structure Package
                              Psi4 0.3.34 Driver

                          Git: Rev {master} f3d6bec dirty

    J. M. Turney, A. C. Simmonett, R. M. Parrish, E. G. Hohenstein,
    F. A. Evangelista, J. T. Fermann, B. J. Mintz, L. A. Burns, J. J. Wilke,
    M. L. Abrams, N. J. Russ, M. L. Leininger, C. L. Janssen, E. T. Seidl,
    W. D. Allen, H. F. Schaefer, R. A. King, E. F. Valeev, C. D. Sherrill,
    and T. D. Crawford, WIREs Comput. Mol. Sci. 2, 556-565 (2012)
    (doi: 10.1002/wcms.93)

                         Additional Contributions by
    A. E. DePrince, M. Saitow, U. Bozkaya, A. Yu. Sokolov
    -----------------------------------------------------------------------


    Psi4 started on: Fri Aug 21 15:38:36 2015

    Process ID:  37361
    PSI4DATADIR: /Users/deprince/psi4-install/psi4public/share/psi
    Memory level set to 256.000 MB

  ==> Input File <==

--------------------------------------------------------------------------
#! cc-pvdz N2 (6,6) active space Test DQG

sys.path.insert(0, '../../..')
import v2rdm_casscf

molecule n2 {
0 1
n
n 1 r
}

set {
  basis cc-pvdz
  scf_type df
  d_convergence      1e-10
  guess sad
  maxiter 500
  frozen_docc  [ 2, 0, 0, 0, 0, 2, 0, 0 ]
  frozen_uocc  [ 4, 1, 2, 2, 1, 4, 2, 2 ]
}
set v2rdm_casscf {
  positivity dqg
  r_convergence  1e-4
  e_convergence  1e-4
  maxiter 20000
}

activate(n2)

n2.r     = 3.0
refscf   = -107.99404148727913 # TEST
refv2rdm = -108.778127535786   # TEST

energy('v2rdm-casscf')

compare_values(refscf, get_variable("SCF TOTAL ENERGY"), 8, "SCF total energy") # TEST
compare_values(refv2rdm, get_variable("CURRENT ENERGY"), 4, "v2RDM-CASSCF total energy") # TEST

--------------------------------------------------------------------------
/Users/deprince/chem/v2rdm_casscf/v2rdm_casscf.so loaded.
Setting geometry variable r to 3.000000

*** tstart() called on Eugenes-MacBook-Pro-2.local
*** at Fri Aug 21 15:38:36 2015


         ---------------------------------------------------------
                                   SCF
            by Justin Turney, Rob Parrish, and Andy Simmonett
                              RHF Reference
                        1 Threads,    256 MiB Core
         ---------------------------------------------------------

  ==> Geometry <==

    Molecular point group: d2h
    Full point group: D_inf_h

    Geometry (in Angstrom), charge = 0, multiplicity = 1:

       Center              X                  Y                   Z       
    ------------   -----------------  -----------------  -----------------
           N          0.000000000000     0.000000000000    -1.500000000000
           N          0.000000000000     0.000000000000     1.500000000000

  Running in d2h symmetry.

  Rotational constants: A = ************  B =      0.26752  C =      0.26752 [cm^-1]
  Rotational constants: A = ************  B =   8020.12797  C =   8020.12797 [MHz]
  Nuclear repulsion =    8.643227740303331

  Charge       = 0
  Multiplicity = 1
  Electrons    = 14
  Nalpha       = 7
  Nbeta        = 7

  ==> Algorithm <==

  SCF Algorithm Type is DF.
  DIIS enabled.
  MOM disabled.
  Fractional occupation disabled.
  Guess Type is SAD.
  Energy threshold   = 1.00e-08
  Density threshold  = 1.00e-10
  Integral threshold = 0.00e+00

  ==> Primary Basis <==

  Basis Set: CC-PVDZ
    Number of shells: 12
    Number of basis function: 28
    Number of Cartesian functions: 30
    Spherical Harmonics?: true
    Max angular momentum: 2

  ==> Pre-Iterations <==

   -------------------------------------------------------
    Irrep   Nso     Nmo     Nalpha   Nbeta   Ndocc  Nsocc
   -------------------------------------------------------
     Ag         7       7       0       0       0       0
     B1g        1       1       0       0       0       0
     B2g        3       3       0       0       0       0
     B3g        3       3       0       0       0       0
     Au         1       1       0       0       0       0
     B1u        7       7       0       0       0       0
     B2u        3       3       0       0       0       0
     B3u        3       3       0       0       0       0
   -------------------------------------------------------
    Total      28      28       7       7       7       0
   -------------------------------------------------------

 OEINTS: Overlap, kinetic, potential, dipole, and quadrupole integrals
         stored in file 35.

  ==> Integral Setup <==

  ==> DFJK: Density-Fitted J/K Matrices <==

    J tasked:                  Yes
    K tasked:                  Yes
    wK tasked:                  No
    OpenMP threads:              1
    Integrals threads:           1
    Memory (MB):               183
    Algorithm:                Core
    Integral Cache:           SAVE
    Schwarz Cutoff:          1E-12
    Fitting Condition:       1E-12

   => Auxiliary Basis Set <=

  Basis Set: 
    Number of shells: 48
    Number of basis function: 140
    Number of Cartesian functions: 162
    Spherical Harmonics?: true
    Max angular momentum: 3

  Minimum eigenvalue in the overlap matrix is 1.7184311245E-01.
  Using Symmetric Orthogonalization.
  SCF Guess: Superposition of Atomic Densities via on-the-fly atomic UHF.

  ==> Iterations <==

                           Total Energy        Delta E     RMS |[F,P]|

   @DF-RHF iter   0:  -107.60007992808110   -1.07600e+02   1.59691e-02 
   @DF-RHF iter   1:  -107.98399457047815   -3.83915e-01   1.15789e-02 
   @DF-RHF iter   2:  -107.99312665168060   -9.13208e-03   3.06319e-03 DIIS
   @DF-RHF iter   3:  -107.99397541778072   -8.48766e-04   6.87172e-04 DIIS
   @DF-RHF iter   4:  -107.99404095801449   -6.55402e-05   6.80501e-05 DIIS
   @DF-RHF iter   5:  -107.99404148457758   -5.26563e-07   5.54967e-06 DIIS
   @DF-RHF iter   6:  -107.99404148718371   -2.60613e-09   8.81117e-07 DIIS
   @DF-RHF iter   7:  -107.99404148727797   -9.42606e-11   8.66426e-08 DIIS
   @DF-RHF iter   8:  -107.99404148727909   -1.12266e-12   8.32328e-09 DIIS
   @DF-RHF iter   9:  -107.99404148727911   -1.42109e-14   1.13278e-09 DIIS
   @DF-RHF iter  10:  -107.99404148727912   -1.42109e-14   3.37796e-11 DIIS

  ==> Post-Iterations <==

    Orbital Energies (a.u.)
    -----------------------

    Doubly Occupied:                                                      

       1Ag   -15.816585     1B1u  -15.816504     2Ag    -1.030104  
       2B1u   -1.006800     3Ag    -0.358108     1B3u   -0.332037  
       1B2u   -0.332037  

    Virtual:                                                              

       1B2g   -0.150817     1B3g   -0.150817     3B1u   -0.112088  
       4Ag     0.820069     2B3u    0.891419     2B2u    0.891419  
       2B3g    0.949629     2B2g    0.949629     4B1u    0.953398  
       5Ag     0.976747     5B1u    1.196764     1B1g    1.990771  
       6Ag     1.990771     3B3u    1.991032     3B2u    1.991032  
       7Ag     1.991897     1Au     1.994144     6B1u    1.994144  
       3B2g    1.998008     3B3g    1.998008     7B1u    2.015140  

    Final Occupation by Irrep:
             Ag   B1g   B2g   B3g    Au   B1u   B2u   B3u 
    DOCC [     3,    0,    0,    0,    0,    2,    1,    1 ]

  Energy converged.

  @DF-RHF Final Energy:  -107.99404148727912

   => Energetics <=

    Nuclear Repulsion Energy =              8.6432277403033311
    One-Electron Energy =                -163.8901889522803117
    Two-Electron Energy =                  47.2529197246978612
    DFT Exchange-Correlation Energy =       0.0000000000000000
    Empirical Dispersion Energy =           0.0000000000000000
    PCM Polarization Energy =               0.0000000000000000
    EFP Energy =                            0.0000000000000000
    Total Energy =                       -107.9940414872791195

    Alert: EFP and PCM quantities not currently incorporated into SCF psivars.

Properties will be evaluated at   0.000000,   0.000000,   0.000000 Bohr
  ==> Properties <==


Properties computed using the SCF density matrix

  Nuclear Dipole Moment: (a.u.)
     X:     0.0000      Y:     0.0000      Z:     0.0000

  Electronic Dipole Moment: (a.u.)
     X:     0.0000      Y:     0.0000      Z:     0.0000

  Dipole Moment: (a.u.)
     X:     0.0000      Y:     0.0000      Z:     0.0000     Total:     0.0000

  Dipole Moment: (Debye)
     X:     0.0000      Y:     0.0000      Z:     0.0000     Total:     0.0000


  Saving occupied orbitals to File 180.

*** tstop() called on Eugenes-MacBook-Pro-2.local at Fri Aug 21 15:38:36 2015
Module time:
	user time   =       0.38 seconds =       0.01 minutes
	system time =       0.01 seconds =       0.00 minutes
	total time  =          0 seconds =       0.00 minutes
Total time:
	user time   =       0.38 seconds =       0.01 minutes
	system time =       0.01 seconds =       0.00 minutes
	total time  =          0 seconds =       0.00 minutes
Reading options from the V2RDM_CASSCF block
Calling plugin v2rdm_casscf.so.

*** tstart() called on Eugenes-MacBook-Pro-2.local
*** at Fri Aug 21 15:38:36 2015



        *******************************************************
        *                                                     *
        *    v-2RDM                                           *
        *                                                     *
        *    Ground-state variational 2-RDM optimization      *
        *    using a boundary-point semidefinite solver       *
        *                                                     *
        *    Eugene DePrince                                  *
        *                                                     *
        *******************************************************

  ==> Input parameters <==

        Freeze core orbitals?                 yes
        Number of frozen core orbitals:         4
        Number of active occupied orbitals:     3
        Number of active virtual orbitals:      3
        Number of frozen virtual orbitals:     18
        r_convergence:                  1.000e-04
        e_convergence:                  1.000e-04
        cg_convergence:                 1.000e-05
        maxiter:                            20000
        cg_maxiter:                         10000

  ==> Memory requirements <==

        D2:                          0.00 mb
        Q2:                          0.00 mb
        G2:                          0.01 mb

        Total number of variables:           1500
        Total number of constraints:         1282
        Total memory requirements:        0.52 mb

    ==> Transform three-electron integrals <==


        Time for integral transformation:     0.09 s


    reference energy:        -107.994041487279
    frozen core energy:      -108.916275541388
    initial 2-RDM energy:    -105.419657990823

      oiter iiter        E(p)        E(d)      E gap)      mu     eps(p)     eps(d)
          0    71 -109.180589  136.582812  245.763401   1.000   56.41561   72.36289
          1    41  -98.732544 -276.790295  178.057751   1.000    9.07292   30.51611
          2    42 -117.286188 -119.672148    2.385959   1.000   13.26875    6.21782
          3    42 -107.331884 -112.192991    4.861107   1.000    6.71012    3.58152
          4    42 -110.578109 -110.711575    0.133467   1.000    3.32348    2.82630
          5    42 -107.721042 -108.511887    0.790845   1.000    1.79304    2.05737
          6    38 -109.207391 -107.544447    1.662944   1.000    1.15171    1.57340
          7    38 -108.326963 -107.745228    0.581734   1.000    0.68409    1.27242
          8    42 -108.709357 -109.097959    0.388602   1.000    0.39245    0.78153
          9    38 -108.309127 -108.316843    0.007716   1.000    0.25259    0.49783
         10    38 -108.459609 -108.702413    0.242804   1.000    0.20434    0.30155
         11    37 -108.391983 -108.341146    0.050837   1.000    0.13929    0.19530
         12    33 -108.533689 -108.473893    0.059795   1.000    0.08197    0.15663
         13    34 -108.562946 -108.383617    0.179328   1.000    0.05590    0.13116
         14    35 -108.620660 -108.478710    0.141950   1.000    0.05574    0.10131
         15    28 -108.601567 -108.478459    0.123108   1.000    0.04620    0.09132
         16    32 -108.584430 -108.518940    0.065490   1.000    0.02213    0.09551
         17    31 -108.553520 -108.506305    0.047216   1.000    0.01797    0.09313
         18    33 -108.535655 -108.498802    0.036853   1.000    0.04834    0.08224
         19    35 -108.535407 -108.498746    0.036661   1.000    0.05865    0.07063
         20    32 -108.552512 -108.509467    0.043045   1.000    0.04737    0.07032
         21    34 -108.565773 -108.519826    0.045947   1.000    0.05982    0.06663
         22    32 -108.582686 -108.549824    0.032862   1.000    0.05302    0.05545
         23    30 -108.596194 -108.565292    0.030902   1.000    0.02902    0.05644
         24    34 -108.603923 -108.564508    0.039415   1.000    0.02124    0.05717
         25    37 -108.605620 -108.550673    0.054947   1.000    0.02981    0.05290
         26    37 -108.603433 -108.537699    0.065734   1.000    0.02568    0.05029
         27    30 -108.599761 -108.530427    0.069334   1.000    0.01207    0.05117
         28    24 -108.596999 -108.531348    0.065652   1.000    0.01030    0.05138
         29    37 -108.596899 -108.537588    0.059311   1.000    0.01729    0.05005
         30    35 -108.599633 -108.543813    0.055821   1.000    0.01634    0.04926
         31    26 -108.604655 -108.547394    0.057261   1.000    0.00941    0.04951
         32    24 -108.610348 -108.546750    0.063598   1.000    0.00295    0.04966
         33    41 -108.615468 -108.544494    0.070974   1.000    0.00538    0.04935
         34    36 -108.618969 -108.541664    0.077305   1.000    0.00607    0.04908
         35    35 -108.620812 -108.540135    0.080677   1.000    0.00387    0.04907
         36    31 -108.621543 -108.540124    0.081419   1.000    0.00254    0.04911
         37    26 -108.622106 -108.541100    0.081006   1.000    0.00421    0.04905
         38    26 -108.623251 -108.542184    0.081067   1.000    0.00502    0.04896
         39    25 -108.625413 -108.542951    0.082461   1.000    0.00439    0.04892
         40    26 -108.628419 -108.543025    0.085394   1.000    0.00304    0.04892
         41    25 -108.631871 -108.542896    0.088976   1.000    0.00190    0.04890
         42    37 -108.635181 -108.542390    0.092790   1.000    0.00156    0.04888
         43    37 -108.638058 -108.542219    0.095839   1.000    0.00162    0.04886
         44    38 -108.640377 -108.542072    0.098305   1.000    0.00166    0.04885
         45    34 -108.642324 -108.542150    0.100174   1.000    0.00205    0.04882
         46    37 -108.644105 -108.542934    0.101172   1.000    0.00279    0.04875
         47    29 -108.646006 -108.543906    0.102100   1.000    0.00291    0.04871
         48    31 -108.648198 -108.544574    0.103624   1.000    0.00248    0.04871
         49    24 -108.650765 -108.544684    0.106081   1.000    0.00185    0.04871
         50    29 -108.653531 -108.544509    0.109022   1.000    0.00142    0.04870
         51    34 -108.656349 -108.544237    0.112112   1.000    0.00133    0.04868
         52    31 -108.658987 -108.544024    0.114963   1.000    0.00128    0.04867
         53    33 -108.661412 -108.543853    0.117559   1.000    0.00111    0.04866
         54    31 -108.663634 -108.543804    0.119830   1.000    0.00093    0.04866
         55    33 -108.665770 -108.543786    0.121984   1.000    0.00093    0.04866
         56    30 -108.667935 -108.543854    0.124081   1.000    0.00101    0.04865
         57    30 -108.670209 -108.543944    0.126265   1.000    0.00100    0.04865
         58    28 -108.672599 -108.544070    0.128529   1.000    0.00088    0.04864
         59    31 -108.675092 -108.544197    0.130895   1.000    0.00143    0.04861
         60    33 -108.677535 -108.545080    0.132455   1.000    0.00245    0.04853
         61    33 -108.679905 -108.546226    0.133679   1.000    0.00258    0.04849
         62    31 -108.682231 -108.546874    0.135357   1.000    0.00211    0.04849
         63    27 -108.684586 -108.547008    0.137578   1.000    0.00159    0.04850
         64    30 -108.686978 -108.546764    0.140214   1.000    0.00260    0.04837
         65    33 -108.689782 -108.548347    0.141434   1.000    0.00462    0.04809
         66    33 -108.692925 -108.550909    0.142016   1.000    0.00549    0.04768
         67    37 -108.695792 -108.554766    0.141026   1.000    0.00721    0.04709
         68    32 -108.696626 -108.560554    0.136072   1.000    0.00908    0.04627
         69    40 -108.697596 -108.572520    0.125076   1.000    0.00907    0.04573
         70    37 -108.699408 -108.579580    0.119828   1.000    0.00559    0.04586
         71    35 -108.701576 -108.579962    0.121614   1.000    0.00571    0.04548
         72    32 -108.703138 -108.577662    0.125476   1.000    0.01024    0.04431
         73    33 -108.705440 -108.581729    0.123711   1.000    0.01052    0.04304
         74    31 -108.706555 -108.588769    0.117786   1.000    0.00972    0.04290
         75    35 -108.710823 -108.599170    0.111653   1.000    0.00944    0.04234
         76    30 -108.711569 -108.602722    0.108846   1.000    0.00825    0.04187
         77    32 -108.713489 -108.606601    0.106888   1.000    0.00751    0.04152
         78    35 -108.715373 -108.609023    0.106350   1.000    0.00726    0.04117
         79    35 -108.717654 -108.610452    0.107203   1.000    0.00792    0.04074
         80    31 -108.720356 -108.616323    0.104033   1.000    0.01063    0.03971
         81    31 -108.723402 -108.622062    0.101339   1.000    0.01230    0.03869
         82    31 -108.725081 -108.624624    0.100457   1.000    0.01203    0.03812
         83    31 -108.724557 -108.625709    0.098848   1.000    0.01252    0.03772
         84    32 -108.723633 -108.627510    0.096123   1.000    0.01273    0.03739
         85    37 -108.720033 -108.632888    0.087146   1.000    0.01464    0.03695
         86    37 -108.717974 -108.640972    0.077002   1.000    0.01699    0.03571
         87    37 -108.718235 -108.647934    0.070301   1.000    0.01707    0.03431
         88    35 -108.720667 -108.652449    0.068218   1.000    0.01463    0.03354
         89    32 -108.723985 -108.652107    0.071878   1.000    0.01181    0.03319
         90    31 -108.725985 -108.649659    0.076325   1.000    0.01186    0.03274
         91    31 -108.725807 -108.648750    0.077056   1.000    0.02013    0.03158
         92    28 -108.726458 -108.656494    0.069964   1.000    0.02387    0.02950
         93    28 -108.728333 -108.669594    0.058738   1.000    0.02119    0.02824
         94    32 -108.730955 -108.684432    0.046523   1.000    0.01649    0.02711
         95    37 -108.732982 -108.701571    0.031411   1.000    0.01209    0.02579
         96    29 -108.734429 -108.708110    0.026319   1.000    0.00837    0.02573
         97    41 -108.735183 -108.714392    0.020791   1.000    0.00829    0.02536
         98    32 -108.735283 -108.708116    0.027167   1.000    0.01004    0.02473
         99    32 -108.735028 -108.701358    0.033670   1.000    0.01127    0.02314
        100    30 -108.733043 -108.695417    0.037626   1.000    0.01351    0.01910
        101    32 -108.731271 -108.701732    0.029539   1.000    0.01811    0.01379
        102    37 -108.730957 -108.717289    0.013668   1.000    0.01881    0.01266
        103    35 -108.731652 -108.732119    0.000467   1.000    0.01730    0.01245
        104    31 -108.732590 -108.742862    0.010272   1.000    0.01446    0.01085
        105    28 -108.733377 -108.746705    0.013327   1.000    0.01111    0.00966
        106    32 -108.733528 -108.745453    0.011925   1.000    0.00825    0.00921
        107    35 -108.733720 -108.742986    0.009266   1.000    0.00661    0.00886
        108    33 -108.734011 -108.740462    0.006451   1.000    0.00579    0.00831
        109    30 -108.734158 -108.737047    0.002890   1.000    0.00537    0.00759
        110    37 -108.734466 -108.733709    0.000757   1.000    0.00484    0.00723
        111    37 -108.734756 -108.730771    0.003985   1.000    0.00424    0.00705
        112    38 -108.735031 -108.727662    0.007368   1.000    0.00365    0.00689
        113    38 -108.735202 -108.726262    0.008940   1.000    0.00305    0.00682
        114    26 -108.735342 -108.726850    0.008492   1.000    0.00290    0.00656
        115    32 -108.735348 -108.728899    0.006449   1.000    0.00321    0.00617
        116    37 -108.735455 -108.732195    0.003260   1.000    0.00320    0.00585
        117    35 -108.735551 -108.735003    0.000548   1.000    0.00276    0.00576
        118    37 -108.735757 -108.737650    0.001893   1.000    0.00206    0.00574
        119    31 -108.735790 -108.738182    0.002392   1.000    0.00156    0.00570
        120    31 -108.735806 -108.738124    0.002318   1.000    0.00156    0.00558
        121    38 -108.735721 -108.736743    0.001022   1.000    0.00175    0.00539
        122    38 -108.735632 -108.735198    0.000434   1.000    0.00180    0.00521
        123    37 -108.735511 -108.733346    0.002165   1.000    0.00166    0.00509
        124    37 -108.735397 -108.731917    0.003480   1.000    0.00149    0.00502
        125    37 -108.735281 -108.730986    0.004295   1.000    0.00156    0.00496
        126    34 -108.735209 -108.730885    0.004324   1.000    0.00187    0.00487
        127    32 -108.735216 -108.731536    0.003680   1.000    0.00212    0.00477
        128    30 -108.735287 -108.732686    0.002601   1.000    0.00214    0.00468
        129    32 -108.735419 -108.733929    0.001489   1.000    0.00192    0.00461
        130    30 -108.735573 -108.735010    0.000563   1.000    0.00157    0.00455
        131    28 -108.735743 -108.735641    0.000101   1.000    0.00129    0.00449
        132    31 -108.735893 -108.735861    0.000032   1.000    0.00127    0.00442
        133    35 -108.736032 -108.735716    0.000316   1.000    0.00147    0.00435
        134    35 -108.736153 -108.735317    0.000836   1.000    0.00168    0.00427
        135    32 -108.736236 -108.734862    0.001374   1.000    0.00182    0.00419
        136    28 -108.736290 -108.734451    0.001838   1.000    0.00189    0.00412
        137    28 -108.736302 -108.734130    0.002172   1.000    0.00189    0.00406
        138    24 -108.736301 -108.733937    0.002364   1.000    0.00187    0.00400
        139    24 -108.736278 -108.733854    0.002425   1.000    0.00185    0.00394
        140    26 -108.736260 -108.733906    0.002353   1.000    0.00186    0.00387
        141    26 -108.736242 -108.734085    0.002157   1.000    0.00190    0.00379
        142    26 -108.736252 -108.734401    0.001851   1.000    0.00197    0.00371
        143    30 -108.736298 -108.734801    0.001497   1.000    0.00205    0.00364
        144    30 -108.736382 -108.735208    0.001173   1.000    0.00216    0.00357
        145    24 -108.736473 -108.735403    0.001070   1.000    0.00230    0.00349
        146    24 -108.736586 -108.735436    0.001150   1.000    0.00249    0.00342
        147    24 -108.736639 -108.735354    0.001285   1.000    0.00267    0.00335
        148    25 -108.736638 -108.735253    0.001385   1.000    0.00277    0.00327
        149    34 -108.736609 -108.735246    0.001364   1.000    0.00289    0.00318
        150    24 -108.736602 -108.735264    0.001338   1.000    0.00299    0.00309
        151    32 -108.736575 -108.735294    0.001280   1.000    0.00307    0.00300
        152    27 -108.736577 -108.735319    0.001258   1.000    0.00314    0.00290
        153    32 -108.736550 -108.735290    0.001260   1.000    0.00320    0.00281
        154    28 -108.736547 -108.735274    0.001273   1.000    0.00326    0.00273
        155    35 -108.736516 -108.735234    0.001283   1.000    0.00330    0.00264
        156    32 -108.736501 -108.735249    0.001252   1.000    0.00334    0.00256
        157    28 -108.736471 -108.735221    0.001250   1.000    0.00337    0.00248
        158    31 -108.736450 -108.735271    0.001179   1.000    0.00339    0.00241
        159    27 -108.736424 -108.735256    0.001168   1.000    0.00342    0.00234
        160    31 -108.736422 -108.735318    0.001104   1.000    0.00343    0.00228
        161    27 -108.736404 -108.735301    0.001103   1.000    0.00343    0.00224
        162    35 -108.736398 -108.735358    0.001040   1.000    0.00343    0.00220
        163    27 -108.736392 -108.735374    0.001018   1.000    0.00342    0.00217
        164    34 -108.736397 -108.735423    0.000974   1.000    0.00340    0.00215
        165    28 -108.736361 -108.735429    0.000933   1.000    0.00337    0.00214
        166    27 -108.736386 -108.735480    0.000906   1.000    0.00334    0.00214
        167    33 -108.736368 -108.735456    0.000912   1.000    0.00330    0.00215
        168    28 -108.736385 -108.735468    0.000917   1.000    0.00323    0.00217
        169    33 -108.736375 -108.735430    0.000945   1.000    0.00315    0.00219
        170    27 -108.736390 -108.735414    0.000976   1.000    0.00305    0.00222
        171    34 -108.736372 -108.735384    0.000988   1.000    0.00294    0.00225
        172    25 -108.736382 -108.735390    0.000992   1.000    0.00281    0.00228
        173    33 -108.736363 -108.735384    0.000979   1.000    0.00268    0.00232
        174    25 -108.736364 -108.735430    0.000934   1.000    0.00254    0.00235
        175    25 -108.736356 -108.735440    0.000915   1.000    0.00240    0.00238
        176    26 -108.736360 -108.735475    0.000886   1.000    0.00225    0.00241
        177    27 -108.736350 -108.735484    0.000865   1.000    0.00211    0.00243
        178    26 -108.736339 -108.735508    0.000831   1.000    0.00194    0.00246
        179    33 -108.736164 -108.735515    0.000648   1.000    0.00172    0.00249
        180    24 -108.736253 -108.735726    0.000527   1.000    0.00161    0.00249
        181    34 -108.736195 -108.735618    0.000578   1.000    0.00149    0.00248
        182    25 -108.736273 -108.735609    0.000663   1.000    0.00140    0.00247
        183    34 -108.736285 -108.735456    0.000829   1.000    0.00132    0.00247
        184    24 -108.736363 -108.735433    0.000930   1.000    0.00129    0.00245
        185    24 -108.736378 -108.735315    0.001063   1.000    0.00124    0.00244
        186    34 -108.736361 -108.735301    0.001060   1.000    0.00119    0.00241
        187    26 -108.736348 -108.735372    0.000976   1.000    0.00115    0.00238
        188    34 -108.736337 -108.735450    0.000886   1.000    0.00114    0.00235
        189    33 -108.736338 -108.735533    0.000804   1.000    0.00116    0.00231
        190    33 -108.736341 -108.735558    0.000783   1.000    0.00123    0.00227
        191    33 -108.736344 -108.735604    0.000740   1.000    0.00133    0.00222
        192    34 -108.736343 -108.735603    0.000740   1.000    0.00144    0.00217
        193    32 -108.736349 -108.735604    0.000744   1.000    0.00156    0.00211
        194    28 -108.736353 -108.735585    0.000768   1.000    0.00168    0.00206
        195    26 -108.736341 -108.735571    0.000771   1.000    0.00178    0.00200
        196    32 -108.736342 -108.735564    0.000778   1.000    0.00187    0.00194
        197    26 -108.736340 -108.735567    0.000773   1.000    0.00196    0.00188
        198    32 -108.736332 -108.735571    0.000761   1.000    0.00205    0.00182
        199    24 -108.736340 -108.735596    0.000744   1.000    0.00213    0.00176

        ==> Orbital Optimization <==

            Orbital Optimization converged in  16 iterations 
            Total energy change: -4.137485e-02
            Final gradient norm: 9.196747e-05

        200    34 -108.777707 -108.684052    0.093656   1.299    0.00222    0.00171
        201    61 -108.797401 -108.707377    0.090024   1.299    0.06310    0.05796
        202    38 -108.792333 -108.740388    0.051946   1.299    0.06546    0.01086
        203    46 -108.777249 -108.791428    0.014179   1.299    0.03333    0.03635
        204    32 -108.767744 -108.825052    0.057308   1.299    0.01141    0.03147
        205    38 -108.768686 -108.833890    0.065204   1.299    0.02196    0.01405
        206    41 -108.776488 -108.817821    0.041333   1.299    0.02129    0.01403
        207    40 -108.783443 -108.791118    0.007675   1.299    0.01546    0.01389
        208    37 -108.785010 -108.762358    0.022652   1.299    0.01020    0.00705
        209    32 -108.781665 -108.746887    0.034778   1.299    0.00493    0.00736
        210    33 -108.777262 -108.747621    0.029640   1.299    0.00395    0.00845
        211    40 -108.774481 -108.759984    0.014497   1.299    0.00644    0.00535
        212    39 -108.774272 -108.774737    0.000465   1.299    0.00692    0.00216
        213    42 -108.775796 -108.787583    0.011788   1.299    0.00525    0.00351
        214    38 -108.777673 -108.793264    0.015591   1.299    0.00274    0.00422
        215    30 -108.778860 -108.791633    0.012773   1.299    0.00278    0.00361
        216    40 -108.779136 -108.785197    0.006061   1.299    0.00450    0.00269
        217    40 -108.778777 -108.777489    0.001288   1.299    0.00487    0.00221
        218    40 -108.778219 -108.771673    0.006546   1.299    0.00369    0.00242
        219    36 -108.777722 -108.769348    0.008374   1.299    0.00200    0.00271
        220    30 -108.777433 -108.770858    0.006575   1.299    0.00184    0.00257
        221    37 -108.777287 -108.774016    0.003271   1.299    0.00242    0.00224
        222    36 -108.777299 -108.777804    0.000505   1.299    0.00228    0.00211
        223    32 -108.777466 -108.780562    0.003096   1.299    0.00158    0.00222
        224    30 -108.777700 -108.781664    0.003964   1.299    0.00124    0.00230
        225    37 -108.777932 -108.780828    0.002896   1.299    0.00161    0.00224
        226    36 -108.778061 -108.778991    0.000930   1.299    0.00185    0.00213
        227    36 -108.778053 -108.776995    0.001058   1.299    0.00169    0.00209
        228    37 -108.777934 -108.775611    0.002323   1.299    0.00129    0.00211
        229    34 -108.777783 -108.775244    0.002539   1.299    0.00096    0.00210
        230    31 -108.777654 -108.775723    0.001931   1.299    0.00089    0.00205
        231    32 -108.777608 -108.776775    0.000833   1.299    0.00093    0.00200
        232    32 -108.777634 -108.777797    0.000163   1.299    0.00093    0.00196
        233    32 -108.777714 -108.778460    0.000746   1.299    0.00094    0.00193
        234    38 -108.777792 -108.778566    0.000774   1.299    0.00104    0.00189
        235    38 -108.777850 -108.778215    0.000365   1.299    0.00117    0.00184
        236    38 -108.777866 -108.777666    0.000200   1.299    0.00123    0.00178
        237    38 -108.777846 -108.777133    0.000714   1.299    0.00122    0.00174
        238    35 -108.777807 -108.776836    0.000971   1.299    0.00119    0.00169
        239    35 -108.777766 -108.776795    0.000971   1.299    0.00118    0.00164
        240    33 -108.777740 -108.777004    0.000736   1.299    0.00119    0.00159
        241    33 -108.777736 -108.777299    0.000437   1.299    0.00122    0.00155
        242    33 -108.777747 -108.777561    0.000186   1.299    0.00126    0.00150
        243    33 -108.777768 -108.777695    0.000074   1.299    0.00131    0.00147
        244    34 -108.777789 -108.777682    0.000107   1.299    0.00136    0.00143
        245    34 -108.777802 -108.777556    0.000246   1.299    0.00140    0.00140
        246    34 -108.777795 -108.777391    0.000404   1.299    0.00143    0.00137
        247    33 -108.777796 -108.777254    0.000542   1.299    0.00144    0.00135
        248    34 -108.777778 -108.777196    0.000583   1.299    0.00145    0.00134
        249    33 -108.777770 -108.777209    0.000562   1.299    0.00145    0.00133
        250    35 -108.777765 -108.777277    0.000488   1.299    0.00144    0.00132
        251    33 -108.777763 -108.777361    0.000402   1.299    0.00143    0.00132
        252    34 -108.777766 -108.777418    0.000348   1.299    0.00141    0.00134
        253    33 -108.777798 -108.777588    0.000210   1.299    0.00140    0.00135
        254    33 -108.777838 -108.777699    0.000139   1.299    0.00140    0.00137
        255    33 -108.777865 -108.777648    0.000217   1.299    0.00140    0.00138
        256    33 -108.777886 -108.777558    0.000328   1.299    0.00139    0.00138
        257    33 -108.777887 -108.777435    0.000452   1.299    0.00138    0.00140
        258    34 -108.777881 -108.777368    0.000513   1.299    0.00136    0.00141
        259    33 -108.777868 -108.777234    0.000634   1.299    0.00133    0.00142
        260    34 -108.777854 -108.777177    0.000677   1.299    0.00129    0.00143
        261    34 -108.777839 -108.777147    0.000692   1.299    0.00123    0.00145
        262    33 -108.777830 -108.777160    0.000671   1.299    0.00117    0.00146
        263    34 -108.777819 -108.777212    0.000607   1.299    0.00110    0.00147
        264    35 -108.777822 -108.777259    0.000563   1.299    0.00105    0.00148
        265    33 -108.777816 -108.777316    0.000500   1.299    0.00099    0.00148
        266    35 -108.777825 -108.777333    0.000493   1.299    0.00094    0.00148
        267    33 -108.777820 -108.777337    0.000482   1.299    0.00090    0.00148
        268    35 -108.777826 -108.777310    0.000515   1.299    0.00086    0.00148
        269    35 -108.777818 -108.777279    0.000539   1.299    0.00082    0.00148
        270    37 -108.777815 -108.777247    0.000568   1.299    0.00079    0.00147
        271    35 -108.777813 -108.777241    0.000572   1.299    0.00077    0.00146
        272    35 -108.777810 -108.777271    0.000539   1.299    0.00077    0.00145
        273    35 -108.777811 -108.777296    0.000515   1.299    0.00077    0.00144
        274    35 -108.777813 -108.777324    0.000488   1.299    0.00077    0.00142
        275    35 -108.777815 -108.777328    0.000487   1.299    0.00078    0.00140
        276    35 -108.777817 -108.777320    0.000497   1.299    0.00079    0.00138
        277    35 -108.777815 -108.777291    0.000524   1.299    0.00079    0.00136
        278    35 -108.777813 -108.777264    0.000548   1.299    0.00080    0.00134
        279    35 -108.777808 -108.777237    0.000570   1.299    0.00080    0.00132
        280    35 -108.777803 -108.777227    0.000575   1.299    0.00081    0.00130
        281    35 -108.777797 -108.777227    0.000570   1.299    0.00082    0.00127
        282    36 -108.777790 -108.777242    0.000548   1.299    0.00084    0.00125
        283    31 -108.777793 -108.777263    0.000530   1.299    0.00086    0.00123
        284    35 -108.777794 -108.777308    0.000487   1.299    0.00088    0.00121
        285    32 -108.777798 -108.777321    0.000476   1.299    0.00091    0.00119
        286    35 -108.777806 -108.777330    0.000476   1.299    0.00093    0.00118
        287    32 -108.777805 -108.777312    0.000493   1.299    0.00095    0.00116
        288    35 -108.777809 -108.777294    0.000515   1.299    0.00097    0.00115
        289    32 -108.777808 -108.777272    0.000536   1.299    0.00098    0.00114
        290    32 -108.777808 -108.777265    0.000543   1.299    0.00098    0.00113
        291    35 -108.777808 -108.777259    0.000548   1.299    0.00098    0.00112
        292    34 -108.777806 -108.777267    0.000539   1.299    0.00098    0.00112
        293    33 -108.777809 -108.777275    0.000534   1.299    0.00098    0.00112
        294    31 -108.777811 -108.777283    0.000528   1.299    0.00097    0.00112
        295    32 -108.777812 -108.777287    0.000525   1.299    0.00096    0.00112
        296    32 -108.777815 -108.777286    0.000530   1.299    0.00095    0.00112
        297    31 -108.777818 -108.777281    0.000537   1.299    0.00094    0.00113
        298    31 -108.777817 -108.777274    0.000543   1.299    0.00092    0.00113
        299    32 -108.777821 -108.777267    0.000554   1.299    0.00090    0.00114
        300    32 -108.777819 -108.777265    0.000554   1.299    0.00089    0.00114
        301    33 -108.777820 -108.777262    0.000558   1.299    0.00087    0.00115
        302    32 -108.777822 -108.777264    0.000558   1.299    0.00084    0.00116
        303    32 -108.777823 -108.777265    0.000558   1.299    0.00082    0.00116
        304    36 -108.777822 -108.777267    0.000555   1.299    0.00080    0.00116
        305    36 -108.777824 -108.777258    0.000566   1.299    0.00078    0.00117
        306    35 -108.777827 -108.777262    0.000565   1.299    0.00075    0.00117
        307    35 -108.777827 -108.777270    0.000557   1.299    0.00073    0.00117
        308    35 -108.777830 -108.777267    0.000563   1.299    0.00071    0.00117
        309    35 -108.777829 -108.777268    0.000561   1.299    0.00069    0.00117
        310    35 -108.777833 -108.777261    0.000571   1.299    0.00067    0.00116
        311    35 -108.777832 -108.777261    0.000571   1.299    0.00066    0.00116
        312    35 -108.777834 -108.777256    0.000579   1.299    0.00064    0.00115
        313    35 -108.777834 -108.777257    0.000577   1.299    0.00063    0.00114
        314    35 -108.777835 -108.777254    0.000581   1.299    0.00063    0.00113
        315    35 -108.777835 -108.777257    0.000578   1.299    0.00062    0.00112
        316    35 -108.777837 -108.777256    0.000581   1.299    0.00063    0.00111
        317    35 -108.777837 -108.777258    0.000578   1.299    0.00063    0.00110
        318    35 -108.777838 -108.777256    0.000583   1.299    0.00064    0.00109
        319    35 -108.777838 -108.777257    0.000581   1.299    0.00064    0.00108
        320    35 -108.777840 -108.777253    0.000586   1.299    0.00065    0.00106
        321    35 -108.777840 -108.777255    0.000585   1.299    0.00066    0.00105
        322    35 -108.777841 -108.777251    0.000589   1.299    0.00068    0.00104
        323    35 -108.777841 -108.777253    0.000588   1.299    0.00069    0.00103
        324    35 -108.777841 -108.777251    0.000590   1.299    0.00070    0.00102
        325    35 -108.777842 -108.777252    0.000590   1.299    0.00071    0.00100
        326    35 -108.777842 -108.777251    0.000592   1.299    0.00072    0.00100
        327    35 -108.777844 -108.777253    0.000591   1.299    0.00073    0.00099
        328    35 -108.777844 -108.777250    0.000593   1.299    0.00074    0.00098
        329    35 -108.777844 -108.777251    0.000593   1.299    0.00075    0.00097
        330    35 -108.777845 -108.777248    0.000596   1.299    0.00076    0.00097
        331    35 -108.777845 -108.777250    0.000595   1.299    0.00076    0.00097
        332    34 -108.777843 -108.777248    0.000595   1.299    0.00077    0.00097
        333    35 -108.777848 -108.777247    0.000600   1.299    0.00077    0.00097
        334    35 -108.777846 -108.777248    0.000598   1.299    0.00077    0.00097
        335    35 -108.777848 -108.777248    0.000599   1.299    0.00077    0.00097
        336    35 -108.777848 -108.777247    0.000601   1.299    0.00077    0.00097
        337    32 -108.777849 -108.777248    0.000601   1.299    0.00076    0.00098
        338    35 -108.777849 -108.777248    0.000601   1.299    0.00076    0.00098
        339    35 -108.777850 -108.777246    0.000604   1.299    0.00075    0.00099
        340    35 -108.777851 -108.777246    0.000605   1.299    0.00074    0.00099
        341    35 -108.777852 -108.777245    0.000606   1.299    0.00073    0.00099
        342    35 -108.777852 -108.777245    0.000607   1.299    0.00072    0.00100
        343    35 -108.777853 -108.777245    0.000608   1.299    0.00071    0.00100
        344    35 -108.777854 -108.777245    0.000609   1.299    0.00070    0.00101
        345    35 -108.777855 -108.777245    0.000610   1.299    0.00069    0.00101
        346    35 -108.777856 -108.777245    0.000611   1.299    0.00068    0.00101
        347    35 -108.777857 -108.777244    0.000613   1.299    0.00067    0.00101
        348    35 -108.777858 -108.777245    0.000613   1.299    0.00066    0.00101
        349    35 -108.777859 -108.777244    0.000615   1.299    0.00065    0.00101
        350    35 -108.777860 -108.777244    0.000616   1.299    0.00064    0.00101
        351    38 -108.777860 -108.777238    0.000622   1.299    0.00063    0.00101
        352    35 -108.777862 -108.777240    0.000622   1.299    0.00062    0.00101
        353    38 -108.777861 -108.777240    0.000621   1.299    0.00062    0.00100
        354    37 -108.777863 -108.777240    0.000622   1.299    0.00061    0.00100
        355    38 -108.777863 -108.777238    0.000625   1.299    0.00061    0.00099
        356    38 -108.777865 -108.777243    0.000621   1.299    0.00060    0.00098
        357    38 -108.777865 -108.777243    0.000622   1.299    0.00060    0.00097
        358    38 -108.777867 -108.777245    0.000622   1.299    0.00060    0.00097
        359    38 -108.777868 -108.777244    0.000624   1.299    0.00060    0.00096
        360    38 -108.777869 -108.777243    0.000626   1.299    0.00060    0.00095
        361    38 -108.777870 -108.777242    0.000628   1.299    0.00061    0.00094
        362    38 -108.777871 -108.777241    0.000630   1.299    0.00061    0.00093
        363    38 -108.777872 -108.777240    0.000632   1.299    0.00061    0.00092
        364    38 -108.777873 -108.777240    0.000633   1.299    0.00061    0.00091
        365    38 -108.777874 -108.777241    0.000633   1.299    0.00062    0.00091
        366    38 -108.777875 -108.777241    0.000634   1.299    0.00062    0.00090
        367    38 -108.777876 -108.777241    0.000635   1.299    0.00062    0.00089
        368    38 -108.777877 -108.777241    0.000635   1.299    0.00063    0.00089
        369    38 -108.777878 -108.777241    0.000637   1.299    0.00063    0.00088
        370    38 -108.777879 -108.777241    0.000638   1.299    0.00063    0.00088
        371    38 -108.777880 -108.777240    0.000639   1.299    0.00063    0.00088
        372    38 -108.777880 -108.777240    0.000640   1.299    0.00063    0.00087
        373    38 -108.777881 -108.777240    0.000641   1.299    0.00063    0.00087
        374    38 -108.777882 -108.777240    0.000642   1.299    0.00063    0.00087
        375    38 -108.777883 -108.777240    0.000643   1.299    0.00062    0.00087
        376    38 -108.777884 -108.777240    0.000644   1.299    0.00062    0.00088
        377    38 -108.777884 -108.777240    0.000644   1.299    0.00062    0.00088
        378    38 -108.777885 -108.777240    0.000645   1.299    0.00061    0.00088
        379    35 -108.777889 -108.777282    0.000607   1.299    0.00062    0.00089
        380    37 -108.777891 -108.777311    0.000580   1.299    0.00063    0.00089
        381    35 -108.777898 -108.777303    0.000595   1.299    0.00064    0.00090
        382    35 -108.777901 -108.777297    0.000604   1.299    0.00064    0.00090
        383    35 -108.777905 -108.777261    0.000644   1.299    0.00063    0.00090
        384    35 -108.777905 -108.777230    0.000675   1.299    0.00062    0.00091
        385    35 -108.777904 -108.777202    0.000702   1.299    0.00060    0.00091
        386    35 -108.777901 -108.777192    0.000709   1.299    0.00058    0.00092
        387    35 -108.777899 -108.777198    0.000701   1.299    0.00057    0.00092
        388    35 -108.777899 -108.777218    0.000681   1.299    0.00056    0.00092
        389    35 -108.777900 -108.777241    0.000659   1.299    0.00056    0.00092
        390    35 -108.777901 -108.777259    0.000642   1.299    0.00056    0.00092
        391    35 -108.777904 -108.777267    0.000637   1.299    0.00056    0.00092
        392    35 -108.777906 -108.777264    0.000642   1.299    0.00057    0.00092
        393    35 -108.777908 -108.777253    0.000655   1.299    0.00057    0.00092
        394    35 -108.777909 -108.777239    0.000670   1.299    0.00056    0.00092
        395    35 -108.777909 -108.777229    0.000680   1.299    0.00056    0.00092
        396    35 -108.777909 -108.777225    0.000684   1.299    0.00056    0.00092
        397    35 -108.777909 -108.777228    0.000681   1.299    0.00055    0.00091
        398    35 -108.777910 -108.777236    0.000674   1.299    0.00055    0.00091
        399    35 -108.777911 -108.777245    0.000665   1.299    0.00056    0.00090

        ==> Orbital Optimization <==

            Orbital Optimization converged in   6 iterations 
            Total energy change: -2.326646e-06
            Final gradient norm: 8.194090e-05

        400    35 -108.777915 -108.777322    0.000593   0.817    0.00056    0.00090
        401    35 -108.777965 -108.777200    0.000765   0.817    0.00050    0.00091
        402    32 -108.777954 -108.777209    0.000745   0.817    0.00050    0.00089
        403    30 -108.777918 -108.777258    0.000661   0.817    0.00053    0.00089
        404    34 -108.777889 -108.777307    0.000583   0.817    0.00059    0.00088
        405    33 -108.777896 -108.777341    0.000555   0.817    0.00064    0.00087
        406    34 -108.777915 -108.777343    0.000572   0.817    0.00066    0.00086
        407    32 -108.777938 -108.777318    0.000620   0.817    0.00068    0.00086
        408    27 -108.777947 -108.777272    0.000675   0.817    0.00070    0.00085
        409    32 -108.777940 -108.777245    0.000695   0.817    0.00071    0.00084
        410    28 -108.777938 -108.777220    0.000718   0.817    0.00071    0.00084
        411    34 -108.777921 -108.777231    0.000690   0.817    0.00072    0.00083
        412    34 -108.777927 -108.777241    0.000686   0.817    0.00072    0.00082
        413    33 -108.777927 -108.777261    0.000667   0.817    0.00072    0.00082
        414    34 -108.777934 -108.777274    0.000660   0.817    0.00073    0.00082
        415    31 -108.777939 -108.777282    0.000658   0.817    0.00074    0.00081
        416    32 -108.777941 -108.777279    0.000662   0.817    0.00075    0.00081
        417    31 -108.777944 -108.777275    0.000668   0.817    0.00076    0.00081
        418    32 -108.777943 -108.777263    0.000680   0.817    0.00076    0.00081
        419    31 -108.777947 -108.777258    0.000689   0.817    0.00076    0.00081
        420    34 -108.777945 -108.777250    0.000695   0.817    0.00076    0.00080
        421    31 -108.777951 -108.777252    0.000699   0.817    0.00076    0.00080
        422    34 -108.777944 -108.777251    0.000693   0.817    0.00075    0.00081
        423    32 -108.777955 -108.777257    0.000697   0.817    0.00075    0.00081
        424    31 -108.777951 -108.777259    0.000692   0.817    0.00075    0.00081
        425    32 -108.777956 -108.777266    0.000690   0.817    0.00074    0.00081
        426    31 -108.777956 -108.777261    0.000694   0.817    0.00073    0.00081
        427    33 -108.777956 -108.777266    0.000690   0.817    0.00072    0.00081
        428    33 -108.777959 -108.777257    0.000702   0.817    0.00072    0.00081
        429    32 -108.777964 -108.777260    0.000704   0.817    0.00071    0.00081
        430    32 -108.777962 -108.777252    0.000711   0.817    0.00070    0.00082
        431    34 -108.777966 -108.777258    0.000707   0.817    0.00068    0.00082
        432    32 -108.777965 -108.777252    0.000713   0.817    0.00067    0.00082
        433    32 -108.777968 -108.777259    0.000709   0.817    0.00066    0.00082
        434    32 -108.777969 -108.777253    0.000715   0.817    0.00065    0.00082
        435    34 -108.777970 -108.777261    0.000709   0.817    0.00065    0.00082
        436    31 -108.777969 -108.777254    0.000715   0.817    0.00064    0.00082
        437    32 -108.777975 -108.777261    0.000714   0.817    0.00063    0.00082
        438    32 -108.777975 -108.777254    0.000721   0.817    0.00062    0.00082
        439    32 -108.777978 -108.777260    0.000718   0.817    0.00062    0.00082
        440    32 -108.777977 -108.777253    0.000724   0.817    0.00061    0.00082
        441    32 -108.777980 -108.777259    0.000721   0.817    0.00061    0.00082
        442    32 -108.777980 -108.777253    0.000728   0.817    0.00060    0.00081
        443    33 -108.777983 -108.777260    0.000722   0.817    0.00060    0.00081
        444    32 -108.777949 -108.777254    0.000695   0.817    0.00051    0.00081
        445    32 -108.777899 -108.777292    0.000607   0.817    0.00041    0.00081
        446    35 -108.777893 -108.777345    0.000549   0.817    0.00042    0.00081
        447    32 -108.777859 -108.777376    0.000484   0.817    0.00039    0.00081
        448    35 -108.777844 -108.777410    0.000434   0.817    0.00040    0.00081
        449    32 -108.777824 -108.777411    0.000413   0.817    0.00041    0.00080
        450    34 -108.777811 -108.777393    0.000418   0.817    0.00044    0.00080
        451    26 -108.777806 -108.777350    0.000455   0.817    0.00045    0.00079
        452    34 -108.777799 -108.777299    0.000499   0.817    0.00046    0.00079
        453    26 -108.777805 -108.777248    0.000557   0.817    0.00046    0.00079
        454    28 -108.777809 -108.777203    0.000606   0.817    0.00046    0.00078
        455    25 -108.777820 -108.777176    0.000644   0.817    0.00046    0.00078
        456    34 -108.777830 -108.777157    0.000673   0.817    0.00045    0.00078
        457    26 -108.777848 -108.777162    0.000686   0.817    0.00045    0.00078
        458    35 -108.777860 -108.777167    0.000693   0.817    0.00046    0.00078
        459    32 -108.777873 -108.777193    0.000680   0.817    0.00046    0.00078
        460    32 -108.777882 -108.777207    0.000676   0.817    0.00047    0.00077
        461    32 -108.777890 -108.777235    0.000655   0.817    0.00048    0.00077
        462    35 -108.777891 -108.777250    0.000642   0.817    0.00048    0.00077
        463    32 -108.777889 -108.777274    0.000615   0.817    0.00048    0.00077
        464    35 -108.777884 -108.777288    0.000596   0.817    0.00048    0.00077
        465    32 -108.777878 -108.777305    0.000573   0.817    0.00048    0.00077
        466    32 -108.777868 -108.777314    0.000554   0.817    0.00048    0.00077
        467    35 -108.777862 -108.777321    0.000542   0.817    0.00047    0.00077
        468    32 -108.777852 -108.777317    0.000535   0.817    0.00047    0.00077
        469    34 -108.777848 -108.777311    0.000537   0.817    0.00047    0.00077
        470    24 -108.777846 -108.777294    0.000552   0.817    0.00046    0.00077
        471    35 -108.777842 -108.777278    0.000563   0.817    0.00046    0.00077
        472    26 -108.777845 -108.777265    0.000580   0.817    0.00045    0.00077
        473    35 -108.777845 -108.777245    0.000599   0.817    0.00045    0.00077
        474    26 -108.777852 -108.777238    0.000614   0.817    0.00044    0.00077
        475    35 -108.777856 -108.777223    0.000633   0.817    0.00044    0.00077
        476    30 -108.777862 -108.777226    0.000636   0.817    0.00043    0.00077
        477    32 -108.777870 -108.777216    0.000653   0.817    0.00043    0.00077
        478    32 -108.777874 -108.777228    0.000646   0.817    0.00042    0.00077
        479    35 -108.777882 -108.777228    0.000654   0.817    0.00042    0.00077
        480    34 -108.777883 -108.777242    0.000641   0.817    0.00042    0.00077
        481    35 -108.777889 -108.777249    0.000640   0.817    0.00041    0.00077
        482    35 -108.777887 -108.777263    0.000624   0.817    0.00040    0.00077
        483    35 -108.777888 -108.777272    0.000616   0.817    0.00040    0.00077
        484    35 -108.777884 -108.777282    0.000602   0.817    0.00039    0.00077
        485    35 -108.777883 -108.777289    0.000594   0.817    0.00038    0.00077
        486    35 -108.777880 -108.777293    0.000587   0.817    0.00037    0.00077
        487    34 -108.777874 -108.777295    0.000580   0.817    0.00037    0.00077
        488    35 -108.777875 -108.777288    0.000586   0.817    0.00036    0.00076
        489    34 -108.777870 -108.777287    0.000584   0.817    0.00036    0.00076
        490    35 -108.777871 -108.777275    0.000596   0.817    0.00035    0.00076
        491    35 -108.777870 -108.777271    0.000600   0.817    0.00035    0.00076
        492    35 -108.777872 -108.777259    0.000613   0.817    0.00035    0.00076
        493    35 -108.777874 -108.777256    0.000619   0.817    0.00035    0.00076
        494    35 -108.777878 -108.777247    0.000630   0.817    0.00035    0.00076
        495    37 -108.777880 -108.777246    0.000634   0.817    0.00035    0.00076
        496    35 -108.777886 -108.777240    0.000646   0.817    0.00036    0.00076
        497    35 -108.777889 -108.777247    0.000641   0.817    0.00036    0.00076
        498    35 -108.777894 -108.777248    0.000646   0.817    0.00036    0.00076
        499    35 -108.777896 -108.777255    0.000642   0.817    0.00037    0.00075
        500    33 -108.777898 -108.777259    0.000638   0.817    0.00037    0.00075
        501    35 -108.777902 -108.777265    0.000637   0.817    0.00037    0.00075
        502    35 -108.777901 -108.777270    0.000631   0.817    0.00038    0.00075
        503    35 -108.777902 -108.777275    0.000627   0.817    0.00038    0.00075
        504    35 -108.777900 -108.777278    0.000622   0.817    0.00038    0.00075
        505    35 -108.777900 -108.777282    0.000619   0.817    0.00038    0.00075
        506    35 -108.777898 -108.777282    0.000616   0.817    0.00038    0.00075
        507    35 -108.777898 -108.777282    0.000616   0.817    0.00039    0.00075
        508    35 -108.777897 -108.777279    0.000618   0.817    0.00039    0.00075
        509    35 -108.777898 -108.777277    0.000620   0.817    0.00039    0.00075
        510    35 -108.777898 -108.777272    0.000625   0.817    0.00040    0.00074
        511    35 -108.777899 -108.777269    0.000630   0.817    0.00040    0.00074
        512    35 -108.777901 -108.777265    0.000636   0.817    0.00040    0.00074
        513    35 -108.777902 -108.777263    0.000640   0.817    0.00040    0.00074
        514    35 -108.777906 -108.777260    0.000646   0.817    0.00041    0.00074
        515    32 -108.777908 -108.777260    0.000648   0.817    0.00041    0.00074
        516    35 -108.777911 -108.777260    0.000651   0.817    0.00041    0.00074
        517    34 -108.777913 -108.777263    0.000650   0.817    0.00041    0.00074
        518    32 -108.777916 -108.777262    0.000654   0.817    0.00041    0.00074
        519    32 -108.777918 -108.777268    0.000650   0.817    0.00042    0.00074
        520    34 -108.777917 -108.777269    0.000649   0.817    0.00042    0.00074
        521    31 -108.777921 -108.777273    0.000649   0.817    0.00042    0.00074
        522    35 -108.777921 -108.777274    0.000647   0.817    0.00042    0.00074
        523    35 -108.777922 -108.777277    0.000645   0.817    0.00041    0.00074
        524    33 -108.777920 -108.777277    0.000643   0.817    0.00041    0.00074
        525    32 -108.777923 -108.777282    0.000641   0.817    0.00041    0.00074
        526    34 -108.777919 -108.777281    0.000638   0.817    0.00041    0.00074
        527    35 -108.777924 -108.777280    0.000644   0.817    0.00041    0.00074
        528    32 -108.777920 -108.777278    0.000642   0.817    0.00041    0.00074
        529    35 -108.777925 -108.777278    0.000646   0.817    0.00040    0.00073
        530    32 -108.777924 -108.777274    0.000649   0.817    0.00040    0.00073
        531    35 -108.777926 -108.777274    0.000652   0.817    0.00040    0.00073
        532    32 -108.777926 -108.777271    0.000655   0.817    0.00040    0.00073
        533    32 -108.777928 -108.777272    0.000657   0.817    0.00040    0.00073
        534    32 -108.777931 -108.777272    0.000659   0.817    0.00040    0.00073
        535    35 -108.777932 -108.777271    0.000661   0.817    0.00039    0.00073
        536    35 -108.777933 -108.777271    0.000663   0.817    0.00039    0.00073
        537    35 -108.777936 -108.777270    0.000666   0.817    0.00039    0.00073
        538    32 -108.777936 -108.777275    0.000661   0.817    0.00039    0.00073
        539    32 -108.777938 -108.777276    0.000662   0.817    0.00039    0.00073
        540    35 -108.777938 -108.777278    0.000660   0.817    0.00039    0.00073
        541    31 -108.777941 -108.777280    0.000661   0.817    0.00039    0.00073
        542    35 -108.777940 -108.777281    0.000659   0.817    0.00039    0.00073
        543    31 -108.777941 -108.777282    0.000660   0.817    0.00038    0.00073
        544    32 -108.777940 -108.777282    0.000658   0.817    0.00038    0.00073
        545    35 -108.777942 -108.777284    0.000659   0.817    0.00038    0.00073
        546    35 -108.777941 -108.777280    0.000661   0.817    0.00038    0.00073
        547    32 -108.777943 -108.777283    0.000660   0.817    0.00038    0.00073
        548    35 -108.777942 -108.777282    0.000660   0.817    0.00038    0.00073
        549    35 -108.777943 -108.777284    0.000659   0.817    0.00038    0.00072
        550    35 -108.777945 -108.777280    0.000665   0.817    0.00039    0.00072
        551    32 -108.777948 -108.777310    0.000639   0.817    0.00041    0.00072
        552    32 -108.777951 -108.777304    0.000647   0.817    0.00042    0.00072
        553    32 -108.777955 -108.777307    0.000648   0.817    0.00043    0.00072
        554    31 -108.777959 -108.777295    0.000665   0.817    0.00044    0.00072
        555    34 -108.777960 -108.777285    0.000675   0.817    0.00044    0.00072
        556    32 -108.777962 -108.777272    0.000690   0.817    0.00043    0.00072
        557    34 -108.777958 -108.777268    0.000691   0.817    0.00043    0.00072
        558    32 -108.777961 -108.777267    0.000693   0.817    0.00042    0.00072
        559    35 -108.777959 -108.777275    0.000684   0.817    0.00042    0.00072
        560    31 -108.777960 -108.777284    0.000676   0.817    0.00042    0.00072
        561    35 -108.777961 -108.777294    0.000667   0.817    0.00043    0.00072
        562    32 -108.777962 -108.777299    0.000663   0.817    0.00043    0.00072
        563    32 -108.777965 -108.777302    0.000664   0.817    0.00044    0.00072
        564    32 -108.777967 -108.777298    0.000669   0.817    0.00044    0.00071
        565    34 -108.777967 -108.777293    0.000674   0.817    0.00044    0.00071
        566    32 -108.777970 -108.777286    0.000684   0.817    0.00044    0.00071
        567    34 -108.777968 -108.777284    0.000683   0.817    0.00044    0.00071
        568    31 -108.777970 -108.777282    0.000689   0.817    0.00044    0.00071
        569    34 -108.777969 -108.777286    0.000683   0.817    0.00044    0.00071
        570    32 -108.777972 -108.777288    0.000684   0.817    0.00044    0.00071
        571    34 -108.777973 -108.777294    0.000678   0.817    0.00044    0.00071
        572    31 -108.777978 -108.777295    0.000683   0.817    0.00044    0.00071
        573    34 -108.777974 -108.777297    0.000677   0.817    0.00045    0.00071
        574    32 -108.777981 -108.777294    0.000687   0.817    0.00045    0.00071
        575    32 -108.777979 -108.777293    0.000686   0.817    0.00045    0.00071
        576    34 -108.777979 -108.777289    0.000690   0.817    0.00045    0.00071
        577    32 -108.777984 -108.777290    0.000694   0.817    0.00045    0.00071
        578    34 -108.777981 -108.777289    0.000692   0.817    0.00045    0.00071
        579    30 -108.777987 -108.777293    0.000695   0.817    0.00045    0.00071
        580    34 -108.777982 -108.777292    0.000690   0.817    0.00045    0.00071
        581    32 -108.777989 -108.777297    0.000693   0.817    0.00045    0.00071
        582    34 -108.777985 -108.777295    0.000691   0.817    0.00045    0.00071
        583    32 -108.777992 -108.777299    0.000693   0.817    0.00045    0.00071
        584    32 -108.777990 -108.777295    0.000695   0.817    0.00045    0.00071
        585    34 -108.777993 -108.777299    0.000694   0.817    0.00045    0.00071
        586    32 -108.777993 -108.777294    0.000699   0.817    0.00045    0.00071
        587    28 -108.777998 -108.777297    0.000701   0.817    0.00045    0.00071
        588    35 -108.777994 -108.777290    0.000704   0.817    0.00045    0.00071
        589    31 -108.777998 -108.777301    0.000697   0.817    0.00045    0.00070
        590    32 -108.777998 -108.777293    0.000705   0.817    0.00045    0.00070
        591    28 -108.778002 -108.777301    0.000701   0.817    0.00046    0.00070
        592    33 -108.777997 -108.777293    0.000704   0.817    0.00046    0.00070
        593    29 -108.778004 -108.777303    0.000701   0.817    0.00046    0.00070
        594    34 -108.778002 -108.777295    0.000706   0.817    0.00046    0.00070
        595    30 -108.778006 -108.777302    0.000704   0.817    0.00046    0.00070
        596    32 -108.778006 -108.777296    0.000710   0.817    0.00047    0.00070
        597    28 -108.778011 -108.777300    0.000711   0.817    0.00047    0.00070
        598    34 -108.778005 -108.777294    0.000711   0.817    0.00047    0.00070
        599    29 -108.778012 -108.777304    0.000708   0.817    0.00047    0.00070

        ==> Orbital Optimization <==

            Orbital Optimization converged in   3 iterations 
            Total energy change: -3.107525e-07
            Final gradient norm: 6.016966e-05

        600    34 -108.778010 -108.777345    0.000665   0.554    0.00047    0.00070
        601    29 -108.778017 -108.777298    0.000719   0.554    0.00047    0.00070
        602    26 -108.778013 -108.777292    0.000720   0.554    0.00048    0.00070
        603    25 -108.778016 -108.777297    0.000719   0.554    0.00048    0.00070
        604    26 -108.778016 -108.777296    0.000720   0.554    0.00049    0.00070
        605    26 -108.778017 -108.777299    0.000718   0.554    0.00049    0.00070
        606    26 -108.778023 -108.777297    0.000726   0.554    0.00049    0.00070
        607    26 -108.778021 -108.777299    0.000722   0.554    0.00050    0.00070
        608    32 -108.778028 -108.777296    0.000732   0.554    0.00050    0.00070
        609    24 -108.778029 -108.777303    0.000726   0.554    0.00050    0.00069
        610    26 -108.778029 -108.777293    0.000735   0.554    0.00051    0.00069
        611    25 -108.778032 -108.777299    0.000733   0.554    0.00051    0.00069
        612    24 -108.778036 -108.777296    0.000741   0.554    0.00051    0.00069
        613    27 -108.778037 -108.777299    0.000738   0.554    0.00051    0.00069
        614    26 -108.778039 -108.777303    0.000737   0.554    0.00051    0.00069
        615    31 -108.778037 -108.777300    0.000737   0.554    0.00052    0.00069
        616    24 -108.778046 -108.777310    0.000736   0.554    0.00052    0.00069
        617    31 -108.778043 -108.777299    0.000744   0.554    0.00052    0.00069
        618    24 -108.778047 -108.777313    0.000734   0.554    0.00052    0.00069
        619    26 -108.778045 -108.777300    0.000745   0.554    0.00052    0.00069
        620    25 -108.778049 -108.777307    0.000742   0.554    0.00052    0.00069
        621    24 -108.778048 -108.777304    0.000744   0.554    0.00052    0.00069
        622    31 -108.778051 -108.777305    0.000745   0.554    0.00053    0.00069
        623    24 -108.778053 -108.777313    0.000741   0.554    0.00053    0.00069
        624    29 -108.778054 -108.777303    0.000751   0.554    0.00053    0.00069
        625    24 -108.778056 -108.777316    0.000741   0.554    0.00053    0.00068
        626    28 -108.778060 -108.777301    0.000759   0.554    0.00053    0.00068
        627    25 -108.778057 -108.777314    0.000744   0.554    0.00053    0.00068
        628    25 -108.778062 -108.777303    0.000760   0.554    0.00053    0.00068
        629    26 -108.778064 -108.777311    0.000753   0.554    0.00053    0.00068
        630    32 -108.778063 -108.777305    0.000757   0.554    0.00053    0.00068
        631    24 -108.778067 -108.777318    0.000748   0.554    0.00053    0.00068
        632    30 -108.778069 -108.777305    0.000764   0.554    0.00054    0.00068
        633    17 -108.778069 -108.777334    0.000735   0.554    0.00054    0.00068
        634    26 -108.778077 -108.777293    0.000784   0.554    0.00054    0.00068
        635    17 -108.778070 -108.777330    0.000740   0.554    0.00054    0.00068
        636    26 -108.778079 -108.777296    0.000783   0.554    0.00054    0.00068
        637    17 -108.778073 -108.777329    0.000744   0.554    0.00054    0.00068
        638    26 -108.778077 -108.777298    0.000779   0.554    0.00055    0.00068
        639    17 -108.778078 -108.777332    0.000746   0.554    0.00054    0.00068
        640    26 -108.778079 -108.777301    0.000778   0.554    0.00055    0.00068
        641    16 -108.778083 -108.777334    0.000749   0.554    0.00055    0.00068
        642    26 -108.778085 -108.777303    0.000781   0.554    0.00055    0.00067
        643    17 -108.778084 -108.777334    0.000749   0.554    0.00055    0.00067
        644    26 -108.778089 -108.777302    0.000786   0.554    0.00056    0.00067
        645    17 -108.778087 -108.777334    0.000752   0.554    0.00056    0.00067
        646    26 -108.778091 -108.777303    0.000788   0.554    0.00056    0.00067
        647    17 -108.778090 -108.777336    0.000755   0.554    0.00056    0.00067
        648    26 -108.778094 -108.777303    0.000791   0.554    0.00057    0.00067
        649    17 -108.778094 -108.777336    0.000757   0.554    0.00056    0.00067
        650    26 -108.778096 -108.777305    0.000791   0.554    0.00057    0.00067
        651    17 -108.778097 -108.777340    0.000758   0.554    0.00057    0.00067
        652    26 -108.778099 -108.777305    0.000794   0.554    0.00057    0.00067
        653    17 -108.778101 -108.777340    0.000761   0.554    0.00057    0.00067
        654    26 -108.778104 -108.777308    0.000796   0.554    0.00058    0.00067
        655    17 -108.778103 -108.777342    0.000761   0.554    0.00057    0.00067
        656    26 -108.778106 -108.777308    0.000798   0.554    0.00058    0.00067
        657    17 -108.778108 -108.777342    0.000765   0.554    0.00058    0.00066
        658    26 -108.778108 -108.777310    0.000799   0.554    0.00058    0.00066
        659    17 -108.778109 -108.777346    0.000764   0.554    0.00058    0.00066
        660    26 -108.778115 -108.777309    0.000806   0.554    0.00059    0.00066
        661    17 -108.778111 -108.777346    0.000765   0.554    0.00058    0.00066
        662    26 -108.778114 -108.777310    0.000804   0.554    0.00059    0.00066
        663    17 -108.778114 -108.777350    0.000765   0.554    0.00059    0.00066
        664    26 -108.778120 -108.777308    0.000812   0.554    0.00059    0.00066
        665    17 -108.778118 -108.777349    0.000769   0.554    0.00059    0.00066
        666    26 -108.778123 -108.777310    0.000813   0.554    0.00060    0.00066
        667    24 -108.778122 -108.777343    0.000779   0.554    0.00059    0.00066
        668    24 -108.778124 -108.777319    0.000806   0.554    0.00060    0.00066
        669    26 -108.778122 -108.777337    0.000785   0.554    0.00060    0.00066
        670    24 -108.778129 -108.777329    0.000801   0.554    0.00060    0.00066
        671    26 -108.778126 -108.777336    0.000790   0.554    0.00060    0.00066
        672    24 -108.778134 -108.777356    0.000778   0.554    0.00063    0.00065
        673    24 -108.778143 -108.777371    0.000772   0.554    0.00066    0.00065
        674    26 -108.778149 -108.777381    0.000767   0.554    0.00069    0.00065
        675    26 -108.778168 -108.777378    0.000790   0.554    0.00072    0.00064
        676    26 -108.778172 -108.777377    0.000795   0.554    0.00073    0.00064
        677    26 -108.778182 -108.777370    0.000813   0.554    0.00073    0.00064
        678    26 -108.778182 -108.777376    0.000806   0.554    0.00071    0.00064
        679    26 -108.778183 -108.777378    0.000804   0.554    0.00069    0.00064
        680    26 -108.778176 -108.777395    0.000781   0.554    0.00066    0.00064
        681    26 -108.778171 -108.777408    0.000763   0.554    0.00063    0.00064
        682    24 -108.778161 -108.777429    0.000732   0.554    0.00061    0.00064
        683    24 -108.778158 -108.777439    0.000719   0.554    0.00060    0.00064
        684    24 -108.778142 -108.777454    0.000688   0.554    0.00058    0.00064
        685    24 -108.778139 -108.777452    0.000686   0.554    0.00058    0.00064
        686    26 -108.778123 -108.777450    0.000673   0.554    0.00058    0.00064
        687    24 -108.778124 -108.777440    0.000684   0.554    0.00058    0.00064
        688    24 -108.778112 -108.777425    0.000687   0.554    0.00058    0.00064
        689    24 -108.778118 -108.777408    0.000709   0.554    0.00058    0.00063
        690    20 -108.778110 -108.777405    0.000706   0.554    0.00059    0.00063
        691    26 -108.778124 -108.777359    0.000765   0.554    0.00060    0.00063
        692    19 -108.778127 -108.777384    0.000743   0.554    0.00061    0.00063
        693    24 -108.778144 -108.777335    0.000809   0.554    0.00062    0.00063
        694    17 -108.778152 -108.777364    0.000787   0.554    0.00064    0.00063
        695    26 -108.778165 -108.777326    0.000839   0.554    0.00066    0.00063
        696    17 -108.778181 -108.777362    0.000819   0.554    0.00067    0.00063
        697    26 -108.778192 -108.777336    0.000855   0.554    0.00068    0.00063
        698    17 -108.778203 -108.777383    0.000820   0.554    0.00069    0.00063
        699    28 -108.778213 -108.777350    0.000864   0.554    0.00070    0.00063
        700    17 -108.778210 -108.777410    0.000800   0.554    0.00070    0.00063
        701    27 -108.778218 -108.777382    0.000837   0.554    0.00070    0.00063
        702    18 -108.778206 -108.777443    0.000763   0.554    0.00069    0.00063
        703    32 -108.778207 -108.777405    0.000801   0.554    0.00068    0.00063
        704    17 -108.778197 -108.777460    0.000737   0.554    0.00067    0.00063
        705    25 -108.778191 -108.777434    0.000758   0.554    0.00066    0.00063
        706    24 -108.778181 -108.777457    0.000724   0.554    0.00065    0.00063
        707    24 -108.778171 -108.777441    0.000730   0.554    0.00064    0.00062
        708    26 -108.778165 -108.777448    0.000718   0.554    0.00063    0.00062
        709    24 -108.778161 -108.777439    0.000722   0.554    0.00063    0.00062
        710    26 -108.778158 -108.777427    0.000731   0.554    0.00063    0.00062
        711    20 -108.778155 -108.777433    0.000722   0.554    0.00063    0.00062
        712    26 -108.778162 -108.777388    0.000774   0.554    0.00063    0.00062
        713    17 -108.778164 -108.777410    0.000754   0.554    0.00063    0.00062
        714    26 -108.778170 -108.777371    0.000799   0.554    0.00064    0.00062
        715    17 -108.778178 -108.777393    0.000785   0.554    0.00064    0.00062
        716    26 -108.778182 -108.777360    0.000822   0.554    0.00065    0.00062
        717    17 -108.778184 -108.777390    0.000794   0.554    0.00063    0.00062
        718    26 -108.778183 -108.777371    0.000812   0.554    0.00064    0.00062
        719    17 -108.778191 -108.777413    0.000778   0.554    0.00064    0.00062
        720    26 -108.778189 -108.777377    0.000812   0.554    0.00065    0.00062
        721    17 -108.778197 -108.777426    0.000771   0.554    0.00065    0.00062
        722    28 -108.778200 -108.777378    0.000822   0.554    0.00066    0.00062
        723    18 -108.778196 -108.777431    0.000765   0.554    0.00066    0.00061
        724    30 -108.778200 -108.777376    0.000824   0.554    0.00066    0.00061
        725    17 -108.778196 -108.777434    0.000762   0.554    0.00065    0.00061
        726    32 -108.778197 -108.777392    0.000805   0.554    0.00065    0.00061
        727    17 -108.778195 -108.777448    0.000747   0.554    0.00065    0.00061
        728    27 -108.778196 -108.777401    0.000795   0.554    0.00065    0.00061
        729    17 -108.778190 -108.777461    0.000729   0.554    0.00064    0.00061
        730    32 -108.778195 -108.777411    0.000784   0.554    0.00065    0.00061
        731    16 -108.778191 -108.777460    0.000731   0.554    0.00064    0.00061
        732    28 -108.778197 -108.777416    0.000781   0.554    0.00064    0.00061
        733    17 -108.778184 -108.777460    0.000724   0.554    0.00064    0.00061
        734    32 -108.778189 -108.777445    0.000744   0.554    0.00067    0.00060
        735    17 -108.778178 -108.777527    0.000651   0.554    0.00069    0.00059
        736    28 -108.778181 -108.777506    0.000675   0.554    0.00069    0.00059
        737    24 -108.778167 -108.777552    0.000615   0.554    0.00068    0.00059
        738    24 -108.778165 -108.777521    0.000645   0.554    0.00066    0.00059
        739    25 -108.778163 -108.777518    0.000645   0.554    0.00065    0.00059
        740    24 -108.778164 -108.777483    0.000681   0.554    0.00064    0.00059
        741    26 -108.778170 -108.777446    0.000724   0.554    0.00063    0.00059
        742    26 -108.778176 -108.777417    0.000759   0.554    0.00062    0.00059
        743    26 -108.778189 -108.777392    0.000797   0.554    0.00061    0.00059
        744    24 -108.778197 -108.777386    0.000810   0.554    0.00061    0.00059
        745    34 -108.778201 -108.777390    0.000812   0.554    0.00061    0.00059
        746    24 -108.778218 -108.777420    0.000797   0.554    0.00061    0.00059
        747    32 -108.778214 -108.777432    0.000782   0.554    0.00062    0.00058
        748    25 -108.778219 -108.777471    0.000748   0.554    0.00062    0.00058
        749    35 -108.778216 -108.777474    0.000742   0.554    0.00062    0.00058
        750    24 -108.778217 -108.777502    0.000714   0.554    0.00062    0.00058
        751    32 -108.778208 -108.777490    0.000718   0.554    0.00062    0.00058
        752    26 -108.778208 -108.777508    0.000700   0.554    0.00063    0.00058
        753    34 -108.778201 -108.777487    0.000714   0.554    0.00063    0.00058
        754    24 -108.778204 -108.777502    0.000703   0.554    0.00063    0.00058
        755    34 -108.778197 -108.777482    0.000716   0.554    0.00063    0.00058
        756    24 -108.778198 -108.777503    0.000695   0.554    0.00065    0.00058
        757    35 -108.778192 -108.777514    0.000678   0.554    0.00066    0.00057
        758    18 -108.778201 -108.777569    0.000632   0.554    0.00067    0.00057
        759    32 -108.778211 -108.777555    0.000656   0.554    0.00067    0.00057
        760    25 -108.778204 -108.777576    0.000628   0.554    0.00067    0.00057
        761    24 -108.778204 -108.777552    0.000651   0.554    0.00065    0.00057
        762    26 -108.778191 -108.777535    0.000656   0.554    0.00064    0.00057
        763    24 -108.778195 -108.777535    0.000660   0.554    0.00062    0.00056
        764    24 -108.778187 -108.777517    0.000670   0.554    0.00061    0.00056
        765    26 -108.778190 -108.777520    0.000670   0.554    0.00061    0.00056
        766    24 -108.778190 -108.777517    0.000674   0.554    0.00061    0.00056
        767    26 -108.778195 -108.777518    0.000678   0.554    0.00061    0.00056
        768    27 -108.778197 -108.777518    0.000679   0.554    0.00061    0.00056
        769    24 -108.778184 -108.777526    0.000658   0.554    0.00061    0.00056
        770    25 -108.778142 -108.777551    0.000591   0.554    0.00060    0.00054
        771    27 -108.778127 -108.777701    0.000426   0.554    0.00064    0.00052
        772    27 -108.778068 -108.777777    0.000292   0.554    0.00059    0.00051
        773    24 -108.778027 -108.777834    0.000192   0.554    0.00056    0.00050
        774    24 -108.777970 -108.777858    0.000113   0.554    0.00055    0.00049
        775    32 -108.777932 -108.777895    0.000037   0.554    0.00056    0.00048
        776    32 -108.777890 -108.777902    0.000011   0.554    0.00059    0.00047
        777    31 -108.777868 -108.777899    0.000031   0.554    0.00062    0.00045
        778    32 -108.777863 -108.777844    0.000019   0.554    0.00065    0.00044
        779    30 -108.777878 -108.777785    0.000093   0.554    0.00067    0.00044
        780    30 -108.777901 -108.777715    0.000186   0.554    0.00068    0.00043
        781    30 -108.777929 -108.777667    0.000263   0.554    0.00069    0.00044
        782    32 -108.777962 -108.777656    0.000306   0.554    0.00068    0.00044
        783    27 -108.777986 -108.777661    0.000325   0.554    0.00067    0.00045
        784    26 -108.778008 -108.777701    0.000307   0.554    0.00065    0.00045
        785    32 -108.778036 -108.777754    0.000282   0.554    0.00062    0.00046
        786    26 -108.778062 -108.777793    0.000268   0.554    0.00060    0.00047
        787    24 -108.778092 -108.777829    0.000262   0.554    0.00058    0.00048
        788    24 -108.778119 -108.777835    0.000284   0.554    0.00058    0.00048
        789    24 -108.778150 -108.777830    0.000320   0.554    0.00058    0.00048
        790    26 -108.778130 -108.777807    0.000323   0.554    0.00050    0.00048
        791    30 -108.778152 -108.777808    0.000344   0.554    0.00051    0.00047
        792    24 -108.778160 -108.777803    0.000356   0.554    0.00051    0.00047
        793    34 -108.778180 -108.777778    0.000402   0.554    0.00054    0.00046
        794    31 -108.778202 -108.777775    0.000427   0.554    0.00057    0.00045
        795    31 -108.778224 -108.777754    0.000470   0.554    0.00060    0.00045
        796    32 -108.778235 -108.777756    0.000479   0.554    0.00062    0.00044
        797    35 -108.778244 -108.777759    0.000486   0.554    0.00063    0.00043
        798    35 -108.778241 -108.777775    0.000466   0.554    0.00063    0.00043
        799    32 -108.778239 -108.777791    0.000448   0.554    0.00063    0.00042

        ==> Orbital Optimization <==

            Orbital Optimization converged in   3 iterations 
            Total energy change: -4.420885e-07
            Final gradient norm: 5.840217e-05

        800    31 -108.778230 -108.777856    0.000375   0.814    0.00062    0.00042
        801    38 -108.778224 -108.777805    0.000419   0.814    0.00061    0.00043
        802    37 -108.778211 -108.777814    0.000397   0.814    0.00060    0.00043
        803    37 -108.778201 -108.777808    0.000393   0.814    0.00059    0.00044
        804    37 -108.778187 -108.777797    0.000390   0.814    0.00057    0.00045
        805    35 -108.778176 -108.777777    0.000399   0.814    0.00056    0.00046
        806    34 -108.778158 -108.777767    0.000391   0.814    0.00054    0.00047
        807    34 -108.778146 -108.777752    0.000394   0.814    0.00052    0.00047
        808    32 -108.778131 -108.777747    0.000384   0.814    0.00051    0.00048
        809    32 -108.778116 -108.777747    0.000369   0.814    0.00050    0.00049
        810    32 -108.778102 -108.777751    0.000352   0.814    0.00049    0.00049
        811    28 -108.778087 -108.777754    0.000333   0.814    0.00049    0.00049
[...]
       2337    35 -108.778108 -108.778095    0.000013   0.960    0.00003    0.00013
       2338    33 -108.778108 -108.778095    0.000013   0.960    0.00003    0.00013
       2339    31 -108.778108 -108.778096    0.000012   0.960    0.00003    0.00013
       2340    34 -108.778108 -108.778096    0.000012   0.960    0.00003    0.00013
       2341    35 -108.778108 -108.778096    0.000012   0.960    0.00003    0.00013
       2342    31 -108.778108 -108.778096    0.000013   0.960    0.00003    0.00013
       2343    31 -108.778108 -108.778096    0.000012   0.960    0.00003    0.00013
       2344    32 -108.778108 -108.778096    0.000013   0.960    0.00003    0.00013
       2345    37 -108.778108 -108.778096    0.000013   0.960    0.00003    0.00013
       2346    32 -108.778108 -108.778096    0.000012   0.960    0.00003    0.00013
       2347    31 -108.778108 -108.778096    0.000012   0.960    0.00003    0.00013
       2348    32 -108.778109 -108.778097    0.000012   0.960    0.00003    0.00013
       2349    34 -108.778108 -108.778097    0.000011   0.960    0.00003    0.00013
       2350    31 -108.778109 -108.778097    0.000011   0.960    0.00003    0.00013
       2351    31 -108.778109 -108.778098    0.000011   0.960    0.00003    0.00013
       2352    36 -108.778109 -108.778097    0.000012   0.960    0.00003    0.00013
       2353    31 -108.778109 -108.778096    0.000012   0.960    0.00003    0.00013
       2354    33 -108.778109 -108.778095    0.000013   0.960    0.00003    0.00013
       2355    30 -108.778108 -108.778095    0.000014   0.960    0.00003    0.00013
       2356    32 -108.778108 -108.778094    0.000014   0.960    0.00003    0.00013
       2357    32 -108.778108 -108.778094    0.000014   0.960    0.00003    0.00013
       2358    32 -108.778108 -108.778093    0.000014   0.960    0.00003    0.00013
       2359    32 -108.778107 -108.778093    0.000014   0.960    0.00003    0.00013
       2360    33 -108.778107 -108.778093    0.000014   0.960    0.00003    0.00013
       2361    31 -108.778107 -108.778093    0.000014   0.960    0.00003    0.00013
       2362    36 -108.778107 -108.778092    0.000014   0.960    0.00003    0.00013
       2363    31 -108.778107 -108.778092    0.000014   0.960    0.00003    0.00013
       2364    32 -108.778106 -108.778092    0.000015   0.960    0.00003    0.00013
       2365    31 -108.778106 -108.778092    0.000015   0.960    0.00003    0.00013
       2366    33 -108.778106 -108.778091    0.000015   0.960    0.00003    0.00013
       2367    31 -108.778106 -108.778091    0.000015   0.960    0.00003    0.00013
       2368    31 -108.778106 -108.778090    0.000016   0.960    0.00003    0.00013
       2369    33 -108.778106 -108.778090    0.000016   0.960    0.00003    0.00013
       2370    31 -108.778107 -108.778090    0.000017   0.960    0.00003    0.00013
       2371    33 -108.778107 -108.778090    0.000016   0.960    0.00003    0.00013
       2372    31 -108.778107 -108.778090    0.000017   0.960    0.00003    0.00013
       2373    33 -108.778107 -108.778090    0.000017   0.960    0.00003    0.00013
       2374    33 -108.778107 -108.778090    0.000017   0.960    0.00003    0.00013
       2375    31 -108.778107 -108.778090    0.000017   0.960    0.00003    0.00013
       2376    34 -108.778107 -108.778090    0.000018   0.960    0.00003    0.00013
       2377    31 -108.778107 -108.778090    0.000018   0.960    0.00003    0.00013
       2378    32 -108.778107 -108.778090    0.000018   0.960    0.00003    0.00013
       2379    31 -108.778108 -108.778090    0.000018   0.960    0.00003    0.00013
       2380    35 -108.778107 -108.778090    0.000018   0.960    0.00003    0.00013
       2381    31 -108.778108 -108.778090    0.000018   0.960    0.00002    0.00013
       2382    37 -108.778107 -108.778090    0.000018   0.960    0.00002    0.00013
       2383    35 -108.778107 -108.778091    0.000017   0.960    0.00002    0.00013
       2384    33 -108.778107 -108.778090    0.000017   0.960    0.00002    0.00013
       2385    34 -108.778107 -108.778091    0.000016   0.960    0.00002    0.00013
       2386    35 -108.778107 -108.778091    0.000016   0.960    0.00002    0.00013
       2387    35 -108.778107 -108.778091    0.000016   0.960    0.00002    0.00013
       2388    34 -108.778107 -108.778091    0.000016   0.960    0.00002    0.00013
       2389    34 -108.778107 -108.778091    0.000016   0.960    0.00002    0.00013
       2390    35 -108.778107 -108.778091    0.000016   0.960    0.00002    0.00013
       2391    37 -108.778107 -108.778091    0.000016   0.960    0.00002    0.00013
       2392    35 -108.778107 -108.778092    0.000015   0.960    0.00003    0.00013
       2393    34 -108.778107 -108.778091    0.000015   0.960    0.00003    0.00013
       2394    35 -108.778107 -108.778092    0.000015   0.960    0.00003    0.00013
       2395    35 -108.778107 -108.778092    0.000015   0.960    0.00003    0.00012
       2396    34 -108.778107 -108.778092    0.000015   0.960    0.00003    0.00012
       2397    35 -108.778107 -108.778092    0.000015   0.960    0.00003    0.00012
       2398    34 -108.778107 -108.778092    0.000016   0.960    0.00003    0.00012
       2399    37 -108.778107 -108.778091    0.000016   0.960    0.00003    0.00012

        ==> Orbital Optimization <==

            Orbital Optimization converged in   2 iterations 
            Total energy change: -8.931806e-10
            Final gradient norm: 1.046044e-05

       2400    34 -108.778107 -108.778091    0.000016   0.209    0.00003    0.00012
       2401    29 -108.778109 -108.778091    0.000017   0.209    0.00003    0.00012
       2402    24 -108.778109 -108.778091    0.000018   0.209    0.00003    0.00012
       2403    24 -108.778110 -108.778092    0.000018   0.209    0.00003    0.00012
       2404    24 -108.778110 -108.778091    0.000018   0.209    0.00003    0.00012
       2405    25 -108.778110 -108.778092    0.000019   0.209    0.00003    0.00012
       2406    24 -108.778111 -108.778091    0.000019   0.209    0.00004    0.00012
       2407    24 -108.778112 -108.778091    0.000020   0.209    0.00004    0.00012
       2408    29 -108.778111 -108.778091    0.000020   0.209    0.00004    0.00012
       2409    24 -108.778112 -108.778091    0.000021   0.209    0.00004    0.00012
       2410    25 -108.778112 -108.778091    0.000021   0.209    0.00004    0.00012
       2411    22 -108.778112 -108.778092    0.000020   0.209    0.00004    0.00012
       2412    24 -108.778112 -108.778091    0.000021   0.209    0.00004    0.00012
       2413    23 -108.778112 -108.778092    0.000020   0.209    0.00004    0.00012
       2414    24 -108.778111 -108.778091    0.000020   0.209    0.00004    0.00012
       2415    24 -108.778111 -108.778092    0.000019   0.209    0.00005    0.00012
       2416    25 -108.778111 -108.778091    0.000020   0.209    0.00005    0.00012
       2417    16 -108.778109 -108.778094    0.000014   0.209    0.00005    0.00012
       2418    25 -108.778110 -108.778090    0.000020   0.209    0.00005    0.00012
       2419    16 -108.778108 -108.778093    0.000015   0.209    0.00005    0.00012
       2420    18 -108.778109 -108.778092    0.000017   0.209    0.00005    0.00012
       2421    16 -108.778108 -108.778093    0.000014   0.209    0.00005    0.00012
       2422    23 -108.778108 -108.778091    0.000017   0.209    0.00005    0.00012
       2423    15 -108.778107 -108.778095    0.000012   0.209    0.00005    0.00012
       2424    22 -108.778107 -108.778092    0.000015   0.209    0.00005    0.00012
       2425    16 -108.778107 -108.778095    0.000013   0.209    0.00005    0.00012
       2426    20 -108.778107 -108.778093    0.000014   0.209    0.00005    0.00012
       2427    12 -108.778108 -108.778094    0.000014   0.209    0.00005    0.00012
       2428    23 -108.778107 -108.778094    0.000012   0.209    0.00005    0.00012
       2429     9 -108.778108 -108.778094    0.000014   0.209    0.00005    0.00012
       2430    25 -108.778108 -108.778095    0.000013   0.209    0.00005    0.00012
       2431    15 -108.778108 -108.778095    0.000013   0.209    0.00005    0.00012
       2432    24 -108.778109 -108.778094    0.000014   0.209    0.00005    0.00012
       2433    16 -108.778108 -108.778097    0.000012   0.209    0.00005    0.00012
       2434    22 -108.778109 -108.778094    0.000015   0.209    0.00004    0.00012
       2435    14 -108.778109 -108.778096    0.000013   0.209    0.00004    0.00012
       2436    20 -108.778110 -108.778095    0.000015   0.209    0.00004    0.00012
       2437    11 -108.778111 -108.778096    0.000015   0.209    0.00004    0.00012
       2438    24 -108.778109 -108.778095    0.000014   0.209    0.00004    0.00012
       2439    10 -108.778110 -108.778095    0.000015   0.209    0.00004    0.00012
       2440    18 -108.778109 -108.778098    0.000012   0.209    0.00004    0.00012
       2441    24 -108.778110 -108.778094    0.000016   0.209    0.00004    0.00012
       2442    16 -108.778109 -108.778097    0.000012   0.209    0.00004    0.00012
       2443    20 -108.778111 -108.778095    0.000015   0.209    0.00004    0.00012
       2444    16 -108.778109 -108.778098    0.000011   0.209    0.00004    0.00012
       2445    22 -108.778110 -108.778095    0.000015   0.209    0.00003    0.00012
       2446    16 -108.778108 -108.778097    0.000011   0.209    0.00003    0.00012
       2447    16 -108.778110 -108.778096    0.000014   0.209    0.00003    0.00012
       2448    24 -108.778108 -108.778097    0.000011   0.209    0.00003    0.00012
       2449    16 -108.778108 -108.778096    0.000012   0.209    0.00003    0.00011
       2450    16 -108.778107 -108.778097    0.000010   0.209    0.00003    0.00011
       2451    24 -108.778108 -108.778096    0.000012   0.209    0.00003    0.00011
       2452    15 -108.778108 -108.778097    0.000011   0.209    0.00003    0.00011
       2453    16 -108.778108 -108.778096    0.000011   0.209    0.00003    0.00011
       2454    24 -108.778107 -108.778096    0.000011   0.209    0.00003    0.00011
       2455    15 -108.778108 -108.778096    0.000012   0.209    0.00003    0.00011
       2456    16 -108.778107 -108.778097    0.000011   0.209    0.00003    0.00011
       2457    24 -108.778108 -108.778096    0.000012   0.209    0.00003    0.00011
       2458    15 -108.778108 -108.778096    0.000011   0.209    0.00003    0.00011
       2459    17 -108.778109 -108.778097    0.000012   0.209    0.00003    0.00011
       2460    24 -108.778109 -108.778096    0.000012   0.209    0.00003    0.00011
       2461    16 -108.778110 -108.778097    0.000013   0.209    0.00003    0.00011
       2462    24 -108.778110 -108.778096    0.000014   0.209    0.00003    0.00011
       2463    16 -108.778111 -108.778097    0.000015   0.209    0.00003    0.00011
       2464    24 -108.778111 -108.778096    0.000015   0.209    0.00003    0.00011
       2465    16 -108.778112 -108.778096    0.000016   0.209    0.00003    0.00011
       2466    24 -108.778113 -108.778096    0.000017   0.209    0.00004    0.00011
       2467    16 -108.778113 -108.778097    0.000017   0.209    0.00004    0.00011
       2468    24 -108.778113 -108.778096    0.000017   0.209    0.00004    0.00011
       2469    16 -108.778114 -108.778097    0.000018   0.209    0.00004    0.00011
       2470    25 -108.778114 -108.778096    0.000018   0.209    0.00004    0.00011
       2471    16 -108.778115 -108.778097    0.000018   0.209    0.00004    0.00011
       2472    25 -108.778115 -108.778096    0.000019   0.209    0.00004    0.00011
       2473    15 -108.778115 -108.778097    0.000018   0.209    0.00004    0.00011
       2474    25 -108.778115 -108.778096    0.000019   0.209    0.00004    0.00011
       2475    16 -108.778116 -108.778097    0.000018   0.209    0.00004    0.00011
       2476    25 -108.778116 -108.778096    0.000019   0.209    0.00004    0.00011
       2477    15 -108.778116 -108.778097    0.000019   0.209    0.00004    0.00011
       2478    24 -108.778116 -108.778096    0.000020   0.209    0.00004    0.00011
       2479    16 -108.778116 -108.778097    0.000018   0.209    0.00004    0.00011
       2480    25 -108.778116 -108.778096    0.000020   0.209    0.00004    0.00011
       2481    15 -108.778116 -108.778097    0.000019   0.209    0.00004    0.00011
       2482    24 -108.778115 -108.778096    0.000019   0.209    0.00004    0.00011
       2483    15 -108.778116 -108.778097    0.000019   0.209    0.00004    0.00011
       2484    24 -108.778115 -108.778096    0.000020   0.209    0.00004    0.00011
       2485    15 -108.778115 -108.778097    0.000018   0.209    0.00004    0.00011
       2486    24 -108.778115 -108.778096    0.000019   0.209    0.00004    0.00011
       2487    24 -108.778114 -108.778097    0.000018   0.209    0.00004    0.00011
       2488    20 -108.778115 -108.778097    0.000018   0.209    0.00004    0.00011
       2489    24 -108.778114 -108.778096    0.000018   0.209    0.00004    0.00011
       2490    16 -108.778114 -108.778097    0.000018   0.209    0.00004    0.00011
       2491    24 -108.778114 -108.778096    0.000017   0.209    0.00004    0.00011
       2492    12 -108.778114 -108.778096    0.000018   0.209    0.00004    0.00011
       2493    25 -108.778113 -108.778096    0.000017   0.209    0.00004    0.00011
       2494    10 -108.778114 -108.778096    0.000017   0.209    0.00005    0.00011
       2495    24 -108.778113 -108.778097    0.000016   0.209    0.00005    0.00011
       2496    11 -108.778114 -108.778097    0.000017   0.209    0.00005    0.00011
       2497    24 -108.778112 -108.778097    0.000015   0.209    0.00005    0.00011
       2498    11 -108.778113 -108.778097    0.000017   0.209    0.00005    0.00011
       2499    24 -108.778112 -108.778097    0.000015   0.209    0.00005    0.00011
       2500    16 -108.778112 -108.778097    0.000015   0.209    0.00005    0.00011
       2501    22 -108.778112 -108.778096    0.000016   0.209    0.00005    0.00011
       2502    15 -108.778112 -108.778097    0.000015   0.209    0.00005    0.00011
       2503    24 -108.778111 -108.778096    0.000015   0.209    0.00005    0.00011
       2504    15 -108.778112 -108.778097    0.000015   0.209    0.00005    0.00011
       2505    20 -108.778112 -108.778097    0.000015   0.209    0.00005    0.00011
       2506    20 -108.778111 -108.778097    0.000014   0.209    0.00006    0.00011
       2507    18 -108.778113 -108.778097    0.000016   0.209    0.00006    0.00010
       2508    24 -108.778111 -108.778097    0.000014   0.209    0.00006    0.00010
       2509    15 -108.778113 -108.778097    0.000015   0.209    0.00006    0.00010
       2510    24 -108.778112 -108.778097    0.000015   0.209    0.00006    0.00010
       2511    12 -108.778113 -108.778097    0.000016   0.209    0.00006    0.00010
       2512    24 -108.778112 -108.778097    0.000015   0.209    0.00006    0.00010
       2513    10 -108.778114 -108.778098    0.000016   0.209    0.00006    0.00010
       2514    24 -108.778113 -108.778098    0.000015   0.209    0.00006    0.00010
       2515    11 -108.778115 -108.778098    0.000017   0.209    0.00006    0.00010
       2516    23 -108.778113 -108.778098    0.000015   0.209    0.00006    0.00010
       2517    11 -108.778115 -108.778098    0.000017   0.209    0.00006    0.00010
       2518    24 -108.778114 -108.778098    0.000016   0.209    0.00006    0.00010
       2519    16 -108.778115 -108.778099    0.000016   0.209    0.00006    0.00010
       2520    22 -108.778116 -108.778098    0.000018   0.209    0.00006    0.00010
       2521    14 -108.778117 -108.778099    0.000018   0.209    0.00006    0.00010
       2522    24 -108.778117 -108.778098    0.000019   0.209    0.00006    0.00010
       2523    12 -108.778118 -108.778099    0.000020   0.209    0.00006    0.00010
       2524    25 -108.778118 -108.778098    0.000020   0.209    0.00006    0.00010
       2525    10 -108.778120 -108.778098    0.000021   0.209    0.00006    0.00010
       2526    24 -108.778119 -108.778099    0.000020   0.209    0.00006    0.00010
       2527    12 -108.778121 -108.778099    0.000022   0.209    0.00006    0.00010
       2528    24 -108.778120 -108.778099    0.000021   0.209    0.00006    0.00010
       2529    16 -108.778121 -108.778100    0.000021   0.209    0.00006    0.00010
       2530    24 -108.778122 -108.778099    0.000023   0.209    0.00006    0.00010
       2531    16 -108.778123 -108.778100    0.000022   0.209    0.00007    0.00010
       2532    24 -108.778123 -108.778098    0.000025   0.209    0.00007    0.00010
       2533    15 -108.778124 -108.778100    0.000024   0.209    0.00007    0.00010
       2534    24 -108.778124 -108.778098    0.000026   0.209    0.00007    0.00010
       2535    15 -108.778125 -108.778100    0.000025   0.209    0.00007    0.00010
       2536    24 -108.778125 -108.778098    0.000027   0.209    0.00007    0.00010
       2537    15 -108.778126 -108.778100    0.000027   0.209    0.00007    0.00010
       2538    24 -108.778126 -108.778098    0.000028   0.209    0.00007    0.00010
       2539    15 -108.778127 -108.778100    0.000027   0.209    0.00007    0.00010
       2540    24 -108.778128 -108.778098    0.000029   0.209    0.00007    0.00010

        ==> Orbital Optimization <==

            Orbital Optimization converged in   2 iterations 
            Total energy change: -6.168122e-09
            Final gradient norm: 1.169009e-05


      v2RDM iterations converged!

      v2RDM total spin [S(S+1)]:             0.000017
    * v2RDM total energy:           -108.778127535786



Properties will be evaluated at   0.000000,   0.000000,   0.000000 Bohr


Properties will be evaluated at   0.000000,   0.000000,   0.000000 Bohr

  Mulliken Charges: (a.u.)

   Center  Symbol    Alpha    Beta     Spin     Total
       1     N     3.50000  3.50000  0.00000 -0.00000
       2     N     3.50000  3.50000  0.00000 -0.00000

   Total alpha =  7.00000, Total beta =  7.00000, Total charge = -0.00000

 # Natural Orbital Occupation Numbers (alpha) #
 Irrep: 1
      1:  1.0000000
      2:  1.0000000
      3:  0.5795207
      4:  0.0000000
      5:  0.0000000
      6:  0.0000000
      7:  0.0000000

 Irrep: 2
      1:  0.0000000

 Irrep: 3
      1:  0.4847192
      2:  0.0000000
      3:  0.0000000

 Irrep: 4
      1:  0.4844070
      2:  0.0000000
      3:  0.0000000

 Irrep: 5
      1:  0.0000000

 Irrep: 6
      1:  1.0000000
      2:  1.0000000
      3:  0.4204746
      4:  0.0000000
      5:  0.0000000
      6:  0.0000000
      7:  0.0000000

 Irrep: 7
      1:  0.5156015
      2:  0.0000000
      3:  0.0000000

 Irrep: 8
      1:  0.5152770
      2:  0.0000000
      3:  0.0000000


 # Natural Orbital Occupation Numbers (beta) #
 Irrep: 1
      1:  1.0000000
      2:  1.0000000
      3:  0.5795174
      4:  0.0000000
      5:  0.0000000
      6:  0.0000000
      7:  0.0000000

 Irrep: 2
      1:  0.0000000

 Irrep: 3
      1:  0.4847178
      2:  0.0000000
      3:  0.0000000

 Irrep: 4
      1:  0.4843930
      2:  0.0000000
      3:  0.0000000

 Irrep: 5
      1:  0.0000000

 Irrep: 6
      1:  1.0000000
      2:  1.0000000
      3:  0.4204793
      4:  0.0000000
      5:  0.0000000
      6:  0.0000000
      7:  0.0000000

 Irrep: 7
      1:  0.5156117
      2:  0.0000000
      3:  0.0000000

 Irrep: 8
      1:  0.5152810
      2:  0.0000000
      3:  0.0000000


*** tstop() called on Eugenes-MacBook-Pro-2.local at Fri Aug 21 15:38:41 2015
Module time:
	user time   =       4.68 seconds =       0.08 minutes
	system time =       0.06 seconds =       0.00 minutes
	total time  =          5 seconds =       0.08 minutes
Total time:
	user time   =       5.07 seconds =       0.08 minutes
	system time =       0.07 seconds =       0.00 minutes
	total time  =          5 seconds =       0.08 minutes

*** PSI4 exiting successfully. Buy a developer a beer!
