    -----------------------------------------------------------------------
          Psi4: An Open-Source Ab Initio Electronic Structure Package
                              Psi4 0.4.224 Driver

                          Git: Rev {master} e38ff50 

    J. M. Turney, A. C. Simmonett, R. M. Parrish, E. G. Hohenstein,
    F. A. Evangelista, J. T. Fermann, B. J. Mintz, L. A. Burns, J. J. Wilke,
    M. L. Abrams, N. J. Russ, M. L. Leininger, C. L. Janssen, E. T. Seidl,
    W. D. Allen, H. F. Schaefer, R. A. King, E. F. Valeev, C. D. Sherrill,
    and T. D. Crawford, WIREs Comput. Mol. Sci. 2, 556-565 (2012)
    (doi: 10.1002/wcms.93)

                         Additional Contributions by
    A. E. DePrince, U. Bozkaya, A. Yu. Sokolov, D. G. A. Smith, R. Di Remigio,
    R. M. Richard, J. F. Gonthier, H. R. McAlexander, M. Saitow, and
    B. P. Pritchard
    -----------------------------------------------------------------------


    Psi4 started on: Tue Apr  5 16:25:15 2016

    Process ID:  14939
    PSI4DATADIR: /edfs/users/edgroup/software/psi4/install/psi4-intel2016-release/share/psi4
    Memory level set to 256.000 MB

  ==> Input File <==

--------------------------------------------------------------------------
#! cc-pvdz N2 (6,6) active space Test DQG

# job description
print '        N2 / cc-pVDZ / DQG(6,6), scf_type = DF, rNN = 3.0 A'

sys.path.insert(0, '../../..')
import v2rdm_casscf

molecule n2 {
0 1
n
n 1 r
}

set {
  basis cc-pvdz
  scf_type df
  d_convergence      1e-10
  guess sad
  maxiter 500
  restricted_docc  [ 2, 0, 0, 0, 0, 2, 0, 0 ]
  restricted_uocc  [ 4, 1, 2, 2, 1, 4, 2, 2 ]
}
set v2rdm_casscf {
  positivity dqg
  r_convergence  1e-4
  e_convergence  1e-4
  maxiter 20000
  orbopt_frequency 200
  mu_update_frequency 200
}

activate(n2)

n2.r     = 3.0
refscf   = -107.99404148727913 # TEST
refv2rdm = -108.778127535786   # TEST

energy('v2rdm-casscf')

compare_values(refscf, get_variable("SCF TOTAL ENERGY"), 8, "SCF total energy") # TEST
compare_values(refv2rdm, get_variable("CURRENT ENERGY"), 4, "v2RDM-CASSCF total energy") # TEST

--------------------------------------------------------------------------
/edfs/users/deprince/chem/v2rdm_casscf/v2rdm_casscf.so loaded.
Setting geometry variable r to 3.000000

*** tstart() called on ed4
*** at Tue Apr  5 16:25:17 2016


         ---------------------------------------------------------
                                   SCF
            by Justin Turney, Rob Parrish, and Andy Simmonett
                              RHF Reference
                        1 Threads,    256 MiB Core
         ---------------------------------------------------------

  ==> Geometry <==

    Molecular point group: d2h
    Full point group: D_inf_h

    Geometry (in Angstrom), charge = 0, multiplicity = 1:

       Center              X                  Y                   Z               Mass       
    ------------   -----------------  -----------------  -----------------  -----------------
           N          0.000000000000     0.000000000000    -1.500000000000    14.003074004780
           N          0.000000000000     0.000000000000     1.500000000000    14.003074004780

  Running in d2h symmetry.

  Rotational constants: A = ************  B =      0.26752  C =      0.26752 [cm^-1]
  Rotational constants: A = ************  B =   8020.12797  C =   8020.12797 [MHz]
  Nuclear repulsion =    8.643227740303340

  Charge       = 0
  Multiplicity = 1
  Electrons    = 14
  Nalpha       = 7
  Nbeta        = 7

  ==> Algorithm <==

  SCF Algorithm Type is DF.
  DIIS enabled.
  MOM disabled.
  Fractional occupation disabled.
  Guess Type is SAD.
  Energy threshold   = 1.00e-08
  Density threshold  = 1.00e-10
  Integral threshold = 0.00e+00

  ==> Primary Basis <==

  Basis Set: CC-PVDZ
    Number of shells: 12
    Number of basis function: 28
    Number of Cartesian functions: 30
    Spherical Harmonics?: true
    Max angular momentum: 2

  ==> Pre-Iterations <==

   -------------------------------------------------------
    Irrep   Nso     Nmo     Nalpha   Nbeta   Ndocc  Nsocc
   -------------------------------------------------------
     Ag         7       7       0       0       0       0
     B1g        1       1       0       0       0       0
     B2g        3       3       0       0       0       0
     B3g        3       3       0       0       0       0
     Au         1       1       0       0       0       0
     B1u        7       7       0       0       0       0
     B2u        3       3       0       0       0       0
     B3u        3       3       0       0       0       0
   -------------------------------------------------------
    Total      28      28       7       7       7       0
   -------------------------------------------------------

  ==> Integral Setup <==

  ==> DFJK: Density-Fitted J/K Matrices <==

    J tasked:                  Yes
    K tasked:                  Yes
    wK tasked:                  No
    OpenMP threads:              1
    Integrals threads:           1
    Memory (MB):               183
    Algorithm:                Core
    Integral Cache:           SAVE
    Schwarz Cutoff:          1E-12
    Fitting Condition:       1E-12

   => Auxiliary Basis Set <=

  Basis Set: 
    Number of shells: 48
    Number of basis function: 140
    Number of Cartesian functions: 162
    Spherical Harmonics?: true
    Max angular momentum: 3

  Minimum eigenvalue in the overlap matrix is 1.7184311245E-01.
  Using Symmetric Orthogonalization.
  SCF Guess: Superposition of Atomic Densities via on-the-fly atomic UHF.

  ==> Iterations <==

                           Total Energy        Delta E     RMS |[F,P]|

   @DF-RHF iter   0:  -107.60007992808107   -1.07600e+02   1.59691e-02 
   @DF-RHF iter   1:  -107.98399457047840   -3.83915e-01   1.15789e-02 
   @DF-RHF iter   2:  -107.99312665168084   -9.13208e-03   3.06319e-03 DIIS
   @DF-RHF iter   3:  -107.99397541778090   -8.48766e-04   6.87172e-04 DIIS
   @DF-RHF iter   4:  -107.99404095801465   -6.55402e-05   6.80501e-05 DIIS
   @DF-RHF iter   5:  -107.99404148457769   -5.26563e-07   5.54967e-06 DIIS
   @DF-RHF iter   6:  -107.99404148718385   -2.60616e-09   8.81117e-07 DIIS
   @DF-RHF iter   7:  -107.99404148727818   -9.43317e-11   8.66426e-08 DIIS
   @DF-RHF iter   8:  -107.99404148727932   -1.13687e-12   8.32328e-09 DIIS
   @DF-RHF iter   9:  -107.99404148727933   -1.42109e-14   1.13278e-09 DIIS
   @DF-RHF iter  10:  -107.99404148727926    7.10543e-14   3.37794e-11 DIIS

  ==> Post-Iterations <==

    Orbital Energies (a.u.)
    -----------------------

    Doubly Occupied:                                                      

       1Ag   -15.816585     1B1u  -15.816504     2Ag    -1.030104  
       2B1u   -1.006800     3Ag    -0.358108     1B2u   -0.332037  
       1B3u   -0.332037  

    Virtual:                                                              

       1B3g   -0.150817     1B2g   -0.150817     3B1u   -0.112088  
       4Ag     0.820069     2B2u    0.891419     2B3u    0.891419  
       2B3g    0.949629     2B2g    0.949629     4B1u    0.953398  
       5Ag     0.976747     5B1u    1.196764     1B1g    1.990771  
       6Ag     1.990771     3B3u    1.991032     3B2u    1.991032  
       7Ag     1.991897     1Au     1.994144     6B1u    1.994144  
       3B2g    1.998008     3B3g    1.998008     7B1u    2.015140  

    Final Occupation by Irrep:
             Ag   B1g   B2g   B3g    Au   B1u   B2u   B3u 
    DOCC [     3,    0,    0,    0,    0,    2,    1,    1 ]

  Energy converged.

  @DF-RHF Final Energy:  -107.99404148727926

   => Energetics <=

    Nuclear Repulsion Energy =              8.6432277403033400
    One-Electron Energy =                -163.8901889522805391
    Two-Electron Energy =                  47.2529197246979109
    DFT Exchange-Correlation Energy =       0.0000000000000000
    Empirical Dispersion Energy =           0.0000000000000000
    PCM Polarization Energy =               0.0000000000000000
    EFP Energy =                            0.0000000000000000
    Total Energy =                       -107.9940414872793042

    Alert: EFP and PCM quantities not currently incorporated into SCF psivars.

Properties will be evaluated at   0.000000,   0.000000,   0.000000 Bohr
  ==> Properties <==


Properties computed using the SCF density matrix

  Nuclear Dipole Moment: (a.u.)
     X:     0.0000      Y:     0.0000      Z:     0.0000

  Electronic Dipole Moment: (a.u.)
     X:     0.0000      Y:     0.0000      Z:     0.0000

  Dipole Moment: (a.u.)
     X:     0.0000      Y:     0.0000      Z:     0.0000     Total:     0.0000

  Dipole Moment: (Debye)
     X:     0.0000      Y:     0.0000      Z:     0.0000     Total:     0.0000


  Saving occupied orbitals to File 180.

*** tstop() called on ed4 at Tue Apr  5 16:25:17 2016
Module time:
	user time   =       0.33 seconds =       0.01 minutes
	system time =       0.01 seconds =       0.00 minutes
	total time  =          0 seconds =       0.00 minutes
Total time:
	user time   =       0.33 seconds =       0.01 minutes
	system time =       0.01 seconds =       0.00 minutes
	total time  =          0 seconds =       0.00 minutes

Reading options from the V2RDM_CASSCF block
Calling plugin v2rdm_casscf.so.



*** tstart() called on ed4
*** at Tue Apr  5 16:25:17 2016



        ****************************************************
        *                                                  *
        *    v2RDM-CASSCF                                  *
        *                                                  *
        *    A variational 2-RDM-driven approach to the    *
        *    active space self-consistent field method     *
        *                                                  *
        ****************************************************


        The following papers should be cited when using v2RDM-CASSCF:

        J. Fosso-Tande, D. R. Nascimento, and A. E. DePrince III,
        Mol. Phys. 114, 423-430 (2015).

            URL: http://dx.doi.org/10.1080/00268976.2015.1078008

        J. Fosso-Tande, T.-S. Nguyen, G. Gidofalvi, and
        A. E. DePrince III, submitted (2016).


  ==> Convergence parameters <==

        r_convergence:                      1.000e-04
        e_convergence:                      1.000e-04
        cg_convergence:                     1.000e-05
        maxiter:                                20000
        cg_maxiter:                             10000

  ==> Active space details <==

        Number of frozen core orbitals:             0
        Number of restricted occupied orbitals:     4
        Number of active occupied orbitals:         3
        Number of active virtual orbitals:          3
        Number of restricted virtual orbitals:     18
        Number of frozen virtual orbitals:          0

        Irrep:             Ag, B1g, B2g, B3g,  Au, B1u, B2u, B3u 
 
        frozen_docc     [   0,   0,   0,   0,   0,   0,   0,   0 ]
        restricted_docc [   2,   0,   0,   0,   0,   2,   0,   0 ]
        active          [   1,   0,   1,   1,   0,   1,   1,   1 ]
        restricted_uocc [   4,   1,   2,   2,   1,   4,   2,   2 ]
        frozen_uocc     [   0,   0,   0,   0,   0,   0,   0,   0 ]

  ==> Orbital optimization parameters <==

        1-step algorithm:                       1
        g_convergence:                  1.000e-04
        e_convergence:                  1.000e-08
        maximum iterations:                    20
        frequency:                            200
        active-active rotations:                0
        exact diagonal Hessian:                 0
        number of DIIS vectors:                 0
        print iteration info:                   0

  ==> Memory requirements <==

        D2:                          0.00 mb
        Q2:                          0.00 mb
        G2:                          0.01 mb

        Total number of variables:           1500
        Total number of constraints:         1282
        Total memory requirements:        0.53 mb

    ==> Transform three-electron integrals <==


        Time for integral transformation:     0.13 s

    Molecular point group: d2h
    Full point group: D_inf_h

    Geometry (in Angstrom), charge = 0, multiplicity = 1:

       Center              X                  Y                   Z               Mass       
    ------------   -----------------  -----------------  -----------------  -----------------
           N          0.000000000000     0.000000000000    -1.500000000000    14.003074004780
           N          0.000000000000     0.000000000000     1.500000000000    14.003074004780

  -AO BASIS SET INFORMATION:
    Name                   = CC-PVDZ
    Total number of shells = 12
    Number of primitives   = 44
    Number of AO           = 30
    Number of SO           = 28
    Maximum AM             = 2
    Spherical Harmonics    = TRUE

  -Contraction Scheme:
    Atom   Type   All Primitives // Shells:
   ------ ------ --------------------------
       1     N     17s 4p 1d // 3s 2p 1d 
       2     N     17s 4p 1d // 3s 2p 1d 

  ==> AO Basis Functions <==

    [ CC-PVDZ ]
    spherical
    ****
    N   1
    S   8 1.00
                      9046.00000000           0.00070000
                      1357.00000000           0.00538900
                       309.30000000           0.02740600
                        87.73000000           0.10320700
                        28.56000000           0.27872300
                        10.21000000           0.44854000
                         3.83800000           0.27823800
                         0.74660000           0.01544000
    S   8 1.00
                      9046.00000000          -0.00015300
                      1357.00000000          -0.00120800
                       309.30000000          -0.00599200
                        87.73000000          -0.02454400
                        28.56000000          -0.06745900
                        10.21000000          -0.15807800
                         3.83800000          -0.12183100
                         0.74660000           0.54900300
    S   1 1.00
                         0.22480000           1.00000000
    P   3 1.00
                        13.55000000           0.03991900
                         2.91700000           0.21716900
                         0.79730000           0.51031900
    P   1 1.00
                         0.21850000           1.00000000
    D   1 1.00
                         0.81700000           1.00000000
    ****


    reference energy:        -107.994041487279
    frozen core energy:      -108.916275541388
    initial 2-RDM energy:     -91.933853245456

      oiter iiter        E(p)        E(d)      E gap)      mu     eps(p)     eps(d)
          0    65 -107.826945   82.013289  189.840235   1.000   65.98376   48.93169
          1    41  -98.701222 -312.475212  213.773990   1.000   10.49167   29.92294
          2    42 -116.147770 -161.207072   45.059303   1.000   14.02317    8.84902
          3    39 -109.922903 -146.295595   36.372693   1.000   10.82992    3.64574
          4    42 -112.204926 -129.717602   17.512676   1.000    8.96045    2.61284
          5    41 -108.762477 -118.891387   10.128910   1.000    4.59221    2.43149
          6    38 -109.484129 -114.079550    4.595421   1.000    3.74134    1.86755
          7    36 -108.648350 -109.164083    0.515733   1.000    2.49265    1.47766
          8    38 -108.549345 -105.667601    2.881744   1.000    1.34058    2.04618
          9    41 -108.758788 -108.756360    0.002428   1.000    0.80612    1.24509
         10    38 -108.628436 -108.145147    0.483289   1.000    0.48227    0.75774
         11    34 -108.538045 -108.858407    0.320362   1.000    0.28396    0.49330
         12    35 -108.407579 -108.457242    0.049662   1.000    0.19368    0.32435
         13    35 -108.384340 -108.604541    0.220201   1.000    0.15365    0.19870
         14    35 -108.410589 -108.404844    0.005745   1.000    0.11074    0.13769
         15    35 -108.487848 -108.444660    0.043188   1.000    0.05769    0.13313
         16    32 -108.551677 -108.408795    0.142883   1.000    0.03928    0.12042
         17    34 -108.588648 -108.462434    0.126214   1.000    0.05118    0.09587
         18    32 -108.586333 -108.483093    0.103240   1.000    0.04367    0.08639
         19    28 -108.564041 -108.511707    0.052334   1.000    0.02212    0.09131
         20    30 -108.539340 -108.507476    0.031865   1.000    0.01425    0.09096
         21    36 -108.529050 -108.497826    0.031224   1.000    0.02519    0.08409
         22    25 -108.536821 -108.486981    0.049840   1.000    0.02404    0.08026
         23    25 -108.555018 -108.483860    0.071159   1.000    0.01467    0.08140
         24    24 -108.565382 -108.486314    0.079067   1.000    0.04625    0.07777
         25    32 -108.574837 -108.512964    0.061872   1.000    0.05357    0.06914
         26    30 -108.580728 -108.534736    0.045992   1.000    0.03622    0.06905
         27    24 -108.572132 -108.540003    0.032130   1.000    0.05032    0.06557
         28    32 -108.569158 -108.558763    0.010395   1.000    0.05233    0.05227
         29    26 -108.573319 -108.563294    0.010025   1.000    0.03227    0.05259
         30    26 -108.583049 -108.556699    0.026350   1.000    0.00935    0.05585
         31    37 -108.594070 -108.546814    0.047256   1.000    0.01809    0.05360
         32    36 -108.602937 -108.538880    0.064057   1.000    0.02280    0.05019
         33    32 -108.607403 -108.537983    0.069420   1.000    0.01675    0.04959
         34    34 -108.607879 -108.541695    0.066184   1.000    0.00808    0.05004
         35    30 -108.605876 -108.547098    0.058778   1.000    0.00746    0.04971
         36    26 -108.603955 -108.550681    0.053274   1.000    0.00895    0.04915
         37    26 -108.603484 -108.551286    0.052198   1.000    0.00762    0.04894
         38    30 -108.605322 -108.549994    0.055328   1.000    0.00620    0.04882
         39    30 -108.608824 -108.547547    0.061277   1.000    0.00608    0.04864
         40    30 -108.613235 -108.546198    0.067037   1.000    0.00527    0.04854
         41    24 -108.617503 -108.545707    0.071797   1.000    0.00341    0.04848
         42    36 -108.621160 -108.546828    0.074332   1.000    0.00429    0.04825
         43    36 -108.624412 -108.550540    0.073872   1.000    0.00565    0.04788
         44    36 -108.627024 -108.553226    0.073798   1.000    0.00565    0.04777
         45    35 -108.628714 -108.554213    0.074501   1.000    0.00448    0.04778
         46    32 -108.629858 -108.554071    0.075787   1.000    0.00295    0.04776
         47    37 -108.630679 -108.553588    0.077091   1.000    0.00245    0.04768
         48    35 -108.631889 -108.553372    0.078518   1.000    0.00302    0.04761
         49    37 -108.633690 -108.553450    0.080240   1.000    0.00330    0.04756
         50    34 -108.636145 -108.553496    0.082649   1.000    0.00297    0.04753
         51    34 -108.639011 -108.553359    0.085652   1.000    0.00237    0.04749
         52    33 -108.641993 -108.553012    0.088981   1.000    0.00191    0.04746
         53    33 -108.644821 -108.552650    0.092171   1.000    0.00167    0.04745
         54    35 -108.647363 -108.552442    0.094921   1.000    0.00153    0.04743
         55    36 -108.649639 -108.552530    0.097109   1.000    0.00146    0.04742
         56    36 -108.651719 -108.552855    0.098864   1.000    0.00146    0.04740
         57    31 -108.653737 -108.553251    0.100487   1.000    0.00149    0.04738
         58    31 -108.655771 -108.553648    0.102123   1.000    0.00147    0.04737
         59    30 -108.657879 -108.553869    0.104011   1.000    0.00141    0.04736
         60    32 -108.660069 -108.554009    0.106060   1.000    0.00133    0.04734
         61    27 -108.662309 -108.554056    0.108252   1.000    0.00336    0.04723
         62    40 -108.663879 -108.556346    0.107533   1.000    0.00480    0.04685
         63    38 -108.665472 -108.559508    0.105964   1.000    0.00625    0.04646
         64    40 -108.668188 -108.565518    0.102669   1.000    0.00707    0.04612
         65    37 -108.671148 -108.569589    0.101559   1.000    0.00727    0.04605
         66    30 -108.671963 -108.571225    0.100738   1.000    0.00598    0.04620
         67    28 -108.675089 -108.573435    0.101654   1.000    0.00331    0.04611
         68    37 -108.676910 -108.571054    0.105856   1.000    0.00373    0.04593
         69    38 -108.679754 -108.568927    0.110827   1.000    0.00416    0.04577
         70    37 -108.682180 -108.566099    0.116081   1.000    0.00438    0.04570
         71    37 -108.684731 -108.564548    0.120184   1.000    0.00380    0.04571
         72    32 -108.686768 -108.563861    0.122908   1.000    0.00248    0.04573
         73    31 -108.688508 -108.564527    0.123981   1.000    0.00166    0.04570
         74    36 -108.689922 -108.565879    0.124044   1.000    0.00210    0.04559
         75    40 -108.691404 -108.567642    0.123763   1.000    0.00404    0.04534
         76    41 -108.691989 -108.571372    0.120618   1.000    0.00647    0.04479
         77    41 -108.693654 -108.576657    0.116997   1.000    0.00719    0.04429
         78    38 -108.696454 -108.581418    0.115036   1.000    0.00679    0.04402
         79    33 -108.699939 -108.585172    0.114768   1.000    0.00787    0.04371
         80    24 -108.703447 -108.590475    0.112973   1.000    0.01043    0.04288
         81    36 -108.704348 -108.598316    0.106033   1.000    0.01113    0.04180
         82    37 -108.707082 -108.607891    0.099192   1.000    0.01016    0.04097
         83    37 -108.706273 -108.612236    0.094036   1.000    0.00943    0.04053
         84    33 -108.704372 -108.616906    0.087466   1.000    0.01536    0.04001
         85    30 -108.702900 -108.621372    0.081529   1.000    0.02018    0.03914
         86    26 -108.703820 -108.626855    0.076965   1.000    0.01914    0.03861
         87    18 -108.706368 -108.630148    0.076220   1.000    0.01556    0.03828
         88    32 -108.710171 -108.630989    0.079181   1.000    0.01162    0.03785
         89    32 -108.713950 -108.630434    0.083516   1.000    0.00870    0.03753
         90    33 -108.717903 -108.634364    0.083539   1.000    0.00882    0.03695
         91    38 -108.721174 -108.636475    0.084698   1.000    0.01141    0.03627
         92    34 -108.723767 -108.639846    0.083920   1.000    0.01372    0.03550
         93    34 -108.723239 -108.643066    0.080173   1.000    0.01387    0.03443
         94    32 -108.721265 -108.648996    0.072269   1.000    0.01668    0.03311
         95    30 -108.719255 -108.657222    0.062033   1.000    0.01837    0.03215
         96    30 -108.719012 -108.667990    0.051021   1.000    0.01685    0.03132
         97    30 -108.720099 -108.674847    0.045252   1.000    0.01472    0.03064
         98    31 -108.721362 -108.679164    0.042198   1.000    0.01361    0.02965
         99    32 -108.722388 -108.680150    0.042238   1.000    0.01218    0.02963
        100    38 -108.723524 -108.687647    0.035877   1.000    0.01068    0.02894
        101    31 -108.723129 -108.685915    0.037214   1.000    0.01267    0.02808
        102    32 -108.722904 -108.687809    0.035096   1.000    0.01555    0.02690
        103    34 -108.722847 -108.688146    0.034701   1.000    0.01725    0.02598
        104    26 -108.723276 -108.689703    0.033573   1.000    0.01640    0.02570
        105    24 -108.724184 -108.690236    0.033948   1.000    0.01337    0.02572
        106    27 -108.725507 -108.690150    0.035357   1.000    0.00949    0.02573
        107    33 -108.726831 -108.689392    0.037439   1.000    0.00691    0.02560
        108    37 -108.728092 -108.689029    0.039063   1.000    0.00718    0.02525
        109    34 -108.728980 -108.689841    0.039139   1.000    0.00849    0.02459
        110    37 -108.729293 -108.692973    0.036320   1.000    0.00947    0.02374
        111    32 -108.729847 -108.697294    0.032553   1.000    0.00928    0.02296
        112    28 -108.730127 -108.701180    0.028946   1.000    0.00878    0.02233
        113    32 -108.731127 -108.703876    0.027251   1.000    0.00798    0.02169
        114    35 -108.732263 -108.704094    0.028169   1.000    0.00709    0.02131
        115    37 -108.733514 -108.702576    0.030938   1.000    0.00608    0.02125
        116    34 -108.734382 -108.700592    0.033790   1.000    0.00557    0.02118
        117    35 -108.734862 -108.699195    0.035667   1.000    0.00525    0.02100
        118    27 -108.734041 -108.699347    0.034693   1.000    0.00623    0.02050
        119    32 -108.730721 -108.701819    0.028902   1.000    0.01833    0.01746
        120    32 -108.728815 -108.714577    0.014238   1.000    0.02351    0.01128
        121    37 -108.729209 -108.733124    0.003915   1.000    0.02003    0.01052
        122    32 -108.731096 -108.746153    0.015057   1.000    0.01364    0.01150
        123    30 -108.732848 -108.751206    0.018358   1.000    0.00894    0.01042
        124    30 -108.733707 -108.747489    0.013783   1.000    0.00739    0.00922
        125    36 -108.733635 -108.740374    0.006739   1.000    0.00731    0.00854
        126    29 -108.733068 -108.734215    0.001147   1.000    0.00698    0.00800
        127    36 -108.732605 -108.729065    0.003540   1.000    0.00661    0.00769
        128    30 -108.732351 -108.727696    0.004655   1.000    0.00678    0.00753
        129    28 -108.732661 -108.729029    0.003632   1.000    0.00711    0.00715
        130    32 -108.732980 -108.730542    0.002438   1.000    0.00683    0.00693
        131    24 -108.733390 -108.732201    0.001189   1.000    0.00589    0.00689
        132    24 -108.733678 -108.732861    0.000817   1.000    0.00488    0.00683
        133    28 -108.733961 -108.733018    0.000943   1.000    0.00436    0.00668
        134    34 -108.734134 -108.732588    0.001546   1.000    0.00421    0.00648
        135    25 -108.734347 -108.732955    0.001392   1.000    0.00407    0.00632
        136    28 -108.734490 -108.733777    0.000713   1.000    0.00390    0.00612
        137    24 -108.734707 -108.734607    0.000100   1.000    0.00368    0.00595
        138    24 -108.734885 -108.735266    0.000382   1.000    0.00336    0.00585
        139    26 -108.735049 -108.735518    0.000469   1.000    0.00301    0.00577
        140    26 -108.734956 -108.735295    0.000339   1.000    0.00267    0.00570
        141    31 -108.734983 -108.734813    0.000170   1.000    0.00232    0.00562
        142    27 -108.734924 -108.733979    0.000945   1.000    0.00211    0.00554
        143    30 -108.734923 -108.733295    0.001628   1.000    0.00202    0.00546
        144    31 -108.734899 -108.732713    0.002186   1.000    0.00207    0.00537
        145    31 -108.734922 -108.732528    0.002394   1.000    0.00219    0.00527
        146    32 -108.734929 -108.732540    0.002390   1.000    0.00230    0.00516
        147    28 -108.734910 -108.732832    0.002078   1.000    0.00238    0.00507
        148    32 -108.734894 -108.733214    0.001680   1.000    0.00241    0.00499
        149    24 -108.734872 -108.733701    0.001171   1.000    0.00235    0.00492
        150    32 -108.734913 -108.734285    0.000627   1.000    0.00218    0.00486
        151    32 -108.735025 -108.734928    0.000097   1.000    0.00196    0.00478
        152    26 -108.735165 -108.735229    0.000064   1.000    0.00177    0.00471
        153    32 -108.735357 -108.735328    0.000028   1.000    0.00168    0.00464
        154    26 -108.735503 -108.735131    0.000372   1.000    0.00171    0.00456
        155    26 -108.735645 -108.734786    0.000859   1.000    0.00179    0.00447
        156    26 -108.735730 -108.734519    0.001211   1.000    0.00188    0.00438
        157    32 -108.735808 -108.734372    0.001436   1.000    0.00198    0.00429
        158    26 -108.735865 -108.734379    0.001486   1.000    0.00210    0.00420
        159    32 -108.735920 -108.734492    0.001428   1.000    0.00222    0.00411
        160    32 -108.735974 -108.734636    0.001337   1.000    0.00235    0.00402
        161    32 -108.736022 -108.734770    0.001252   1.000    0.00247    0.00393
        162    30 -108.736059 -108.734882    0.001177   1.000    0.00260    0.00384
        163    26 -108.736077 -108.734938    0.001139   1.000    0.00273    0.00375
        164    32 -108.736104 -108.735043    0.001061   1.000    0.00286    0.00365
        165    29 -108.736143 -108.735150    0.000993   1.000    0.00300    0.00355
        166    35 -108.736194 -108.735379    0.000814   1.000    0.00317    0.00345
        167    26 -108.736262 -108.735290    0.000972   1.000    0.00333    0.00335
        168    33 -108.736311 -108.735297    0.001014   1.000    0.00348    0.00325
        169    26 -108.736356 -108.735054    0.001302   1.000    0.00359    0.00316
        170    32 -108.736336 -108.734961    0.001374   1.000    0.00364    0.00308
        171    30 -108.736311 -108.734902    0.001409   1.000    0.00367    0.00299
        172    32 -108.736277 -108.734955    0.001322   1.000    0.00371    0.00291
        173    30 -108.736273 -108.735065    0.001208   1.000    0.00376    0.00283
        174    31 -108.736246 -108.735170    0.001076   1.000    0.00380    0.00276
        175    32 -108.736252 -108.735292    0.000960   1.000    0.00384    0.00269
        176    32 -108.736251 -108.735337    0.000913   1.000    0.00387    0.00263
        177    32 -108.736257 -108.735395    0.000862   1.000    0.00389    0.00259
        178    32 -108.736262 -108.735396    0.000866   1.000    0.00388    0.00256
        179    32 -108.736260 -108.735413    0.000847   1.000    0.00386    0.00253
        180    32 -108.736266 -108.735414    0.000851   1.000    0.00383    0.00252
        181    30 -108.736295 -108.735488    0.000807   1.000    0.00379    0.00251
        182    32 -108.736292 -108.735485    0.000807   1.000    0.00375    0.00250
        183    33 -108.736315 -108.735488    0.000827   1.000    0.00370    0.00250
        184    32 -108.736307 -108.735444    0.000863   1.000    0.00363    0.00250
        185    32 -108.736313 -108.735402    0.000911   1.000    0.00354    0.00252
        186    31 -108.736304 -108.735343    0.000961   1.000    0.00344    0.00253
        187    32 -108.736292 -108.735324    0.000967   1.000    0.00331    0.00255
        188    30 -108.736270 -108.735310    0.000960   1.000    0.00316    0.00257
        189    35 -108.736261 -108.735389    0.000872   1.000    0.00301    0.00259
        190    32 -108.736255 -108.735420    0.000835   1.000    0.00286    0.00260
        191    32 -108.736256 -108.735568    0.000688   1.000    0.00272    0.00260
        192    32 -108.736274 -108.735611    0.000663   1.000    0.00261    0.00260
        193    32 -108.736277 -108.735626    0.000650   1.000    0.00253    0.00259
        194    34 -108.736300 -108.735584    0.000717   1.000    0.00247    0.00257
        195    34 -108.736283 -108.735489    0.000793   1.000    0.00242    0.00255
        196    32 -108.736273 -108.735406    0.000867   1.000    0.00237    0.00252
        197    34 -108.736264 -108.735319    0.000946   1.000    0.00232    0.00250
        198    28 -108.736238 -108.735283    0.000955   1.000    0.00227    0.00247
        199    32 -108.736222 -108.735281    0.000941   1.000    0.00224    0.00243

        ==> Orbital Optimization <==

            Orbital Optimization converged in  16 iterations 
            Total energy change: -4.147926e-02
            Final gradient norm: 9.015227e-05

        200    32 -108.777678 -108.683819    0.093859   0.927    0.00222    0.00239
        201    61 -108.805299 -108.707124    0.098176   0.927    0.08782    0.05816
        202    38 -108.799087 -108.743693    0.055394   0.927    0.09072    0.01324
        203    42 -108.781311 -108.807991    0.026681   0.927    0.04409    0.03539
        204    31 -108.767411 -108.827220    0.059809   0.927    0.01504    0.03334
        205    41 -108.766408 -108.826494    0.060086   0.927    0.03513    0.01558
        206    38 -108.775262 -108.806345    0.031084   0.927    0.03293    0.01201
        207    40 -108.784197 -108.780175    0.004021   0.927    0.02030    0.01410
        208    37 -108.786397 -108.757117    0.029280   0.927    0.01097    0.00889
        209    36 -108.782250 -108.746760    0.035490   0.927    0.00711    0.00728
        210    31 -108.776434 -108.751908    0.024526   0.927    0.00807    0.00771
        211    36 -108.773012 -108.765995    0.007016   0.927    0.00936    0.00492
        212    41 -108.772993 -108.779943    0.006950   0.927    0.00828    0.00246
        213    41 -108.775282 -108.790136    0.014854   0.927    0.00499    0.00376
        214    32 -108.777922 -108.792873    0.014951   0.927    0.00217    0.00419
        215    36 -108.779430 -108.789231    0.009801   0.927    0.00417    0.00324
        216    40 -108.779533 -108.781873    0.002340   0.927    0.00586    0.00226
        217    41 -108.778806 -108.774998    0.003808   0.927    0.00556    0.00230
        218    39 -108.778062 -108.771362    0.006700   0.927    0.00373    0.00240
        219    32 -108.777407 -108.770252    0.007155   0.927    0.00194    0.00241
        220    30 -108.777078 -108.772231    0.004846   0.927    0.00243    0.00217
        221    36 -108.776983 -108.775494    0.001489   0.927    0.00302    0.00189
        222    37 -108.777076 -108.778597    0.001522   0.927    0.00265    0.00183
        223    35 -108.777295 -108.780532    0.003237   0.927    0.00189    0.00188
        224    24 -108.777570 -108.780904    0.003333   0.927    0.00180    0.00187
        225    32 -108.777807 -108.779953    0.002146   0.927    0.00224    0.00178
        226    37 -108.777949 -108.778320    0.000370   0.927    0.00242    0.00170
        227    36 -108.777945 -108.776890    0.001055   0.927    0.00224    0.00167
        228    34 -108.777819 -108.775951    0.001868   0.927    0.00192    0.00165
        229    26 -108.777658 -108.775727    0.001931   0.927    0.00172    0.00163
        230    25 -108.777501 -108.776178    0.001323   0.927    0.00167    0.00161
        231    28 -108.777423 -108.776825    0.000598   0.927    0.00167    0.00158
        232    30 -108.777424 -108.777528    0.000104   0.927    0.00166    0.00155
        233    22 -108.777469 -108.777950    0.000480   0.927    0.00165    0.00152
        234    24 -108.777542 -108.778035    0.000493   0.927    0.00168    0.00150
        235    26 -108.777608 -108.777892    0.000284   0.927    0.00172    0.00149
        236    26 -108.777640 -108.777621    0.000018   0.927    0.00175    0.00147
        237    32 -108.777643 -108.777329    0.000314   0.927    0.00175    0.00145
        238    24 -108.777631 -108.777142    0.000489   0.927    0.00173    0.00143
        239    34 -108.777603 -108.777054    0.000549   0.927    0.00171    0.00142
        240    26 -108.777579 -108.777097    0.000482   0.927    0.00169    0.00140
        241    24 -108.777553 -108.777196    0.000357   0.927    0.00168    0.00139
        242    26 -108.777557 -108.777279    0.000278   0.927    0.00168    0.00138
        243    32 -108.777553 -108.777388    0.000165   0.927    0.00167    0.00137
        244    24 -108.777575 -108.777426    0.000149   0.927    0.00165    0.00136
        245    26 -108.777583 -108.777419    0.000165   0.927    0.00163    0.00136
        246    24 -108.777595 -108.777388    0.000206   0.927    0.00161    0.00135
        247    26 -108.777599 -108.777324    0.000275   0.927    0.00158    0.00135
        248    26 -108.777600 -108.777282    0.000318   0.927    0.00154    0.00134
        249    24 -108.777588 -108.777239    0.000349   0.927    0.00151    0.00134
        250    24 -108.777584 -108.777220    0.000364   0.927    0.00146    0.00134
        251    24 -108.777572 -108.777223    0.000349   0.927    0.00142    0.00134
        252    24 -108.777572 -108.777247    0.000325   0.927    0.00139    0.00134
        253    24 -108.777569 -108.777274    0.000295   0.927    0.00135    0.00134
        254    26 -108.777580 -108.777307    0.000273   0.927    0.00131    0.00134
        255    24 -108.777579 -108.777335    0.000244   0.927    0.00128    0.00134
        256    26 -108.777597 -108.777330    0.000268   0.927    0.00125    0.00134
        257    24 -108.777595 -108.777339    0.000256   0.927    0.00121    0.00134
        258    26 -108.777612 -108.777299    0.000314   0.927    0.00118    0.00133
        259    24 -108.777600 -108.777293    0.000307   0.927    0.00114    0.00133
        260    26 -108.777611 -108.777249    0.000361   0.927    0.00110    0.00133
        261    24 -108.777599 -108.777254    0.000345   0.927    0.00106    0.00133
        262    26 -108.777604 -108.777230    0.000373   0.927    0.00102    0.00132
        263    24 -108.777594 -108.777253    0.000341   0.927    0.00098    0.00131
        264    26 -108.777601 -108.777249    0.000352   0.927    0.00095    0.00131
        265    24 -108.777594 -108.777276    0.000318   0.927    0.00093    0.00130
        266    26 -108.777603 -108.777273    0.000330   0.927    0.00092    0.00129
        267    24 -108.777599 -108.777289    0.000309   0.927    0.00091    0.00128
        268    26 -108.777607 -108.777279    0.000328   0.927    0.00091    0.00127
        269    24 -108.777604 -108.777283    0.000321   0.927    0.00091    0.00126
        270    25 -108.777610 -108.777269    0.000341   0.927    0.00091    0.00125
        271    24 -108.777606 -108.777272    0.000334   0.927    0.00092    0.00123
        272    24 -108.777611 -108.777262    0.000349   0.927    0.00093    0.00122
        273    24 -108.777607 -108.777270    0.000337   0.927    0.00094    0.00120
        274    24 -108.777614 -108.777268    0.000346   0.927    0.00095    0.00119
        275    24 -108.777610 -108.777275    0.000335   0.927    0.00097    0.00117
        276    25 -108.777617 -108.777273    0.000344   0.927    0.00099    0.00116
        277    24 -108.777613 -108.777278    0.000335   0.927    0.00101    0.00114
        278    24 -108.777618 -108.777268    0.000350   0.927    0.00102    0.00113
        279    24 -108.777613 -108.777273    0.000340   0.927    0.00104    0.00111
        280    24 -108.777619 -108.777261    0.000359   0.927    0.00105    0.00110
        281    25 -108.777614 -108.777268    0.000346   0.927    0.00107    0.00109
        282    24 -108.777618 -108.777260    0.000358   0.927    0.00108    0.00108
        283    24 -108.777615 -108.777265    0.000350   0.927    0.00108    0.00107
        284    24 -108.777618 -108.777261    0.000357   0.927    0.00109    0.00106
        285    24 -108.777614 -108.777266    0.000348   0.927    0.00109    0.00105
        286    24 -108.777618 -108.777261    0.000357   0.927    0.00109    0.00104
        287    24 -108.777613 -108.777266    0.000347   0.927    0.00109    0.00104
        288    24 -108.777618 -108.777259    0.000359   0.927    0.00109    0.00103
        289    26 -108.777611 -108.777264    0.000347   0.927    0.00108    0.00103
        290    24 -108.777616 -108.777260    0.000357   0.927    0.00107    0.00103
        291    24 -108.777617 -108.777275    0.000342   0.927    0.00105    0.00103
        292    26 -108.777631 -108.777321    0.000310   0.927    0.00104    0.00103
        293    24 -108.777640 -108.777336    0.000304   0.927    0.00103    0.00103
        294    24 -108.777658 -108.777353    0.000305   0.927    0.00102    0.00103
        295    24 -108.777665 -108.777350    0.000316   0.927    0.00101    0.00103
        296    24 -108.777679 -108.777332    0.000348   0.927    0.00100    0.00104
        297    24 -108.777680 -108.777299    0.000381   0.927    0.00098    0.00104
        298    24 -108.777683 -108.777262    0.000421   0.927    0.00095    0.00104
        299    24 -108.777674 -108.777221    0.000454   0.927    0.00092    0.00105
        300    26 -108.777667 -108.777192    0.000475   0.927    0.00088    0.00105
        301    24 -108.777654 -108.777179    0.000474   0.927    0.00083    0.00106
        302    26 -108.777645 -108.777174    0.000472   0.927    0.00079    0.00106
        303    24 -108.777633 -108.777193    0.000440   0.927    0.00075    0.00106
        304    26 -108.777630 -108.777207    0.000423   0.927    0.00071    0.00106
        305    24 -108.777625 -108.777240    0.000384   0.927    0.00068    0.00107
        306    26 -108.777629 -108.777254    0.000375   0.927    0.00066    0.00107
        307    24 -108.777629 -108.777281    0.000348   0.927    0.00064    0.00107
        308    26 -108.777638 -108.777282    0.000356   0.927    0.00062    0.00107
        309    24 -108.777640 -108.777299    0.000341   0.927    0.00061    0.00107
        310    24 -108.777650 -108.777284    0.000365   0.927    0.00060    0.00106
        311    24 -108.777652 -108.777290    0.000362   0.927    0.00060    0.00106
        312    20 -108.777657 -108.777277    0.000380   0.927    0.00059    0.00106
        313    20 -108.777661 -108.777266    0.000394   0.927    0.00060    0.00105
        314    18 -108.777663 -108.777252    0.000410   0.927    0.00060    0.00105
        315    18 -108.777662 -108.777244    0.000417   0.927    0.00060    0.00104
        316    18 -108.777660 -108.777232    0.000427   0.927    0.00061    0.00104
        317    18 -108.777657 -108.777225    0.000432   0.927    0.00062    0.00103
        318    18 -108.777654 -108.777221    0.000433   0.927    0.00063    0.00102
        319    18 -108.777651 -108.777222    0.000430   0.927    0.00064    0.00102
        320    18 -108.777649 -108.777226    0.000423   0.927    0.00066    0.00101
        321    26 -108.777651 -108.777229    0.000422   0.927    0.00068    0.00100
        322    17 -108.777648 -108.777244    0.000404   0.927    0.00069    0.00099
        323    18 -108.777650 -108.777252    0.000398   0.927    0.00071    0.00098
        324    25 -108.777654 -108.777254    0.000400   0.927    0.00073    0.00098
        325    17 -108.777657 -108.777264    0.000393   0.927    0.00075    0.00097
        326    26 -108.777663 -108.777260    0.000403   0.927    0.00076    0.00096
        327    18 -108.777663 -108.777269    0.000394   0.927    0.00077    0.00096
        328    25 -108.777671 -108.777247    0.000423   0.927    0.00078    0.00095
        329    17 -108.777670 -108.777264    0.000406   0.927    0.00079    0.00094
        330    25 -108.777676 -108.777242    0.000433   0.927    0.00080    0.00094
        331    18 -108.777674 -108.777256    0.000417   0.927    0.00081    0.00094
        332    26 -108.777679 -108.777228    0.000451   0.927    0.00081    0.00093
        333    16 -108.777677 -108.777249    0.000428   0.927    0.00081    0.00093
        334    26 -108.777681 -108.777228    0.000453   0.927    0.00081    0.00093
        335    17 -108.777677 -108.777245    0.000432   0.927    0.00081    0.00093
        336    26 -108.777681 -108.777224    0.000457   0.927    0.00080    0.00093
        337    16 -108.777678 -108.777246    0.000432   0.927    0.00079    0.00093
        338    26 -108.777683 -108.777234    0.000449   0.927    0.00079    0.00093
        339    18 -108.777682 -108.777254    0.000427   0.927    0.00078    0.00093
        340    26 -108.777687 -108.777233    0.000454   0.927    0.00077    0.00093
        341    18 -108.777685 -108.777262    0.000423   0.927    0.00075    0.00093
        342    26 -108.777693 -108.777241    0.000453   0.927    0.00074    0.00093
        343    18 -108.777691 -108.777267    0.000424   0.927    0.00073    0.00093
        344    26 -108.777698 -108.777235    0.000463   0.927    0.00071    0.00094
        345    18 -108.777696 -108.777267    0.000429   0.927    0.00070    0.00094
        346    26 -108.777704 -108.777236    0.000468   0.927    0.00068    0.00094
        347    18 -108.777702 -108.777265    0.000437   0.927    0.00067    0.00094
        348    28 -108.777707 -108.777226    0.000481   0.927    0.00066    0.00094
        349    18 -108.777703 -108.777262    0.000442   0.927    0.00064    0.00095
        350    24 -108.777712 -108.777228    0.000484   0.927    0.00063    0.00095
        351    24 -108.777707 -108.777252    0.000454   0.927    0.00062    0.00095
        352    28 -108.777713 -108.777229    0.000484   0.927    0.00061    0.00095
        353    24 -108.777708 -108.777253    0.000456   0.927    0.00060    0.00095
        354    28 -108.777715 -108.777234    0.000480   0.927    0.00059    0.00095
        355    28 -108.777713 -108.777255    0.000458   0.927    0.00059    0.00095
        356    30 -108.777716 -108.777247    0.000470   0.927    0.00058    0.00095
        357    28 -108.777718 -108.777257    0.000461   0.927    0.00059    0.00094
        358    28 -108.777720 -108.777247    0.000472   0.927    0.00059    0.00094
        359    32 -108.777720 -108.777257    0.000463   0.927    0.00059    0.00094
        360    24 -108.777723 -108.777248    0.000476   0.927    0.00060    0.00094
        361    30 -108.777724 -108.777252    0.000472   0.927    0.00060    0.00093
        362    26 -108.777726 -108.777252    0.000474   0.927    0.00061    0.00093
        363    30 -108.777725 -108.777251    0.000474   0.927    0.00062    0.00093
        364    24 -108.777728 -108.777254    0.000475   0.927    0.00063    0.00092
        365    28 -108.777730 -108.777247    0.000483   0.927    0.00064    0.00092
        366    24 -108.777728 -108.777256    0.000472   0.927    0.00065    0.00092
        367    25 -108.777732 -108.777243    0.000490   0.927    0.00066    0.00091
        368    24 -108.777728 -108.777254    0.000474   0.927    0.00067    0.00091
        369    30 -108.777732 -108.777247    0.000485   0.927    0.00068    0.00091
        370    24 -108.777731 -108.777259    0.000472   0.927    0.00069    0.00090
        371    24 -108.777735 -108.777247    0.000488   0.927    0.00069    0.00090
        372    24 -108.777731 -108.777255    0.000476   0.927    0.00070    0.00090
        373    26 -108.777737 -108.777247    0.000490   0.927    0.00071    0.00089
        374    22 -108.777732 -108.777260    0.000473   0.927    0.00071    0.00089
        375    28 -108.777737 -108.777249    0.000487   0.927    0.00071    0.00089
        376    24 -108.777736 -108.777266    0.000469   0.927    0.00072    0.00089
        377    24 -108.777738 -108.777250    0.000488   0.927    0.00072    0.00088
        378    24 -108.777738 -108.777260    0.000477   0.927    0.00072    0.00088
        379    28 -108.777740 -108.777251    0.000488   0.927    0.00072    0.00088
        380    22 -108.777738 -108.777263    0.000474   0.927    0.00072    0.00088
        381    25 -108.777742 -108.777246    0.000496   0.927    0.00072    0.00088
        382    24 -108.777738 -108.777263    0.000475   0.927    0.00071    0.00088
        383    24 -108.777742 -108.777249    0.000493   0.927    0.00071    0.00088
        384    22 -108.777739 -108.777262    0.000477   0.927    0.00070    0.00088
        385    26 -108.777745 -108.777248    0.000497   0.927    0.00069    0.00088
        386    22 -108.777738 -108.777267    0.000472   0.927    0.00068    0.00088
        387    25 -108.777746 -108.777248    0.000498   0.927    0.00068    0.00088
        388    22 -108.777739 -108.777267    0.000472   0.927    0.00067    0.00088
        389    26 -108.777745 -108.777248    0.000497   0.927    0.00066    0.00089
        390    22 -108.777741 -108.777268    0.000473   0.927    0.00065    0.00089
        391    24 -108.777745 -108.777250    0.000495   0.927    0.00064    0.00089
        392    24 -108.777743 -108.777264    0.000479   0.927    0.00063    0.00089
        393    24 -108.777745 -108.777256    0.000489   0.927    0.00062    0.00089
        394    25 -108.777745 -108.777261    0.000484   0.927    0.00061    0.00089
        395    24 -108.777745 -108.777260    0.000486   0.927    0.00060    0.00089
        396    26 -108.777750 -108.777273    0.000476   0.927    0.00059    0.00089
        397    24 -108.777753 -108.777285    0.000469   0.927    0.00058    0.00089
        398    24 -108.777760 -108.777290    0.000469   0.927    0.00058    0.00089
        399    24 -108.777764 -108.777292    0.000471   0.927    0.00058    0.00089

        ==> Orbital Optimization <==

            Orbital Optimization converged in   4 iterations 
            Total energy change: -1.529700e-06
            Final gradient norm: 7.791447e-05

        400    26 -108.777769 -108.777332    0.000438   0.603    0.00058    0.00089
        401    33 -108.777816 -108.777247    0.000570   0.603    0.00055    0.00090
        402    27 -108.777818 -108.777277    0.000541   0.603    0.00054    0.00089
        403    24 -108.777793 -108.777317    0.000475   0.603    0.00055    0.00089
        404    24 -108.777776 -108.777325    0.000452   0.603    0.00059    0.00089
        405    26 -108.777775 -108.777309    0.000466   0.603    0.00061    0.00089
        406    24 -108.777777 -108.777281    0.000495   0.603    0.00060    0.00088
        407    24 -108.777786 -108.777242    0.000544   0.603    0.00058    0.00088
        408    24 -108.777777 -108.777227    0.000551   0.603    0.00057    0.00088
        409    24 -108.777771 -108.777216    0.000555   0.603    0.00055    0.00088
        410    24 -108.777757 -108.777237    0.000520   0.603    0.00055    0.00087
        411    24 -108.777755 -108.777258    0.000498   0.603    0.00056    0.00087
        412    24 -108.777756 -108.777289    0.000467   0.603    0.00057    0.00087
        413    24 -108.777767 -108.777305    0.000462   0.603    0.00058    0.00087
        414    20 -108.777773 -108.777330    0.000443   0.603    0.00060    0.00086
        415    26 -108.777789 -108.777292    0.000497   0.603    0.00062    0.00086
        416    18 -108.777788 -108.777322    0.000467   0.603    0.00063    0.00086
        417    24 -108.777798 -108.777264    0.000533   0.603    0.00063    0.00086
        418    17 -108.777796 -108.777289    0.000507   0.603    0.00063    0.00086
        419    24 -108.777798 -108.777250    0.000549   0.603    0.00064    0.00086
        420    16 -108.777797 -108.777279    0.000518   0.603    0.00063    0.00085
        421    24 -108.777800 -108.777255    0.000544   0.603    0.00063    0.00085
        422    16 -108.777799 -108.777287    0.000512   0.603    0.00063    0.00085
        423    24 -108.777801 -108.777258    0.000544   0.603    0.00063    0.00085
        424    16 -108.777801 -108.777289    0.000512   0.603    0.00063    0.00085
        425    25 -108.777805 -108.777256    0.000550   0.603    0.00063    0.00085
        426    16 -108.777802 -108.777287    0.000516   0.603    0.00062    0.00085
        427    24 -108.777805 -108.777250    0.000555   0.603    0.00062    0.00085
        428    16 -108.777804 -108.777282    0.000522   0.603    0.00061    0.00085
        429    26 -108.777809 -108.777252    0.000557   0.603    0.00061    0.00085
        430    16 -108.777806 -108.777288    0.000518   0.603    0.00060    0.00085
        431    24 -108.777810 -108.777258    0.000552   0.603    0.00059    0.00085
        432    16 -108.777810 -108.777293    0.000517   0.603    0.00058    0.00085
        433    26 -108.777817 -108.777260    0.000557   0.603    0.00058    0.00085
        434    16 -108.777817 -108.777299    0.000518   0.603    0.00057    0.00085
        435    24 -108.777823 -108.777260    0.000562   0.603    0.00057    0.00085
        436    16 -108.777822 -108.777299    0.000523   0.603    0.00057    0.00085
        437    24 -108.777830 -108.777256    0.000574   0.603    0.00056    0.00085
        438    16 -108.777829 -108.777298    0.000530   0.603    0.00056    0.00085
        439    24 -108.777834 -108.777250    0.000583   0.603    0.00056    0.00085
        440    16 -108.777831 -108.777299    0.000532   0.603    0.00055    0.00085
        441    24 -108.777839 -108.777248    0.000592   0.603    0.00055    0.00085
        442    16 -108.777836 -108.777298    0.000537   0.603    0.00054    0.00085
        443    24 -108.777841 -108.777241    0.000600   0.603    0.00055    0.00085
        444    24 -108.777838 -108.777285    0.000553   0.603    0.00054    0.00085
        445    26 -108.777844 -108.777251    0.000593   0.603    0.00054    0.00084
        446    24 -108.777839 -108.777284    0.000556   0.603    0.00054    0.00084
        447    24 -108.777845 -108.777260    0.000585   0.603    0.00055    0.00084
        448    24 -108.777845 -108.777285    0.000560   0.603    0.00055    0.00084
        449    28 -108.777849 -108.777269    0.000580   0.603    0.00056    0.00084
        450    25 -108.777852 -108.777291    0.000561   0.603    0.00056    0.00084
        451    32 -108.777852 -108.777274    0.000578   0.603    0.00057    0.00084
        452    24 -108.777859 -108.777291    0.000568   0.603    0.00058    0.00084
        453    24 -108.777858 -108.777272    0.000586   0.603    0.00059    0.00084
        454    24 -108.777864 -108.777282    0.000582   0.603    0.00059    0.00083
        455    24 -108.777862 -108.777272    0.000590   0.603    0.00060    0.00083
        456    24 -108.777869 -108.777282    0.000587   0.603    0.00061    0.00083
        457    31 -108.777865 -108.777272    0.000593   0.603    0.00061    0.00083
        458    22 -108.777874 -108.777291    0.000583   0.603    0.00062    0.00083
        459    29 -108.777871 -108.777265    0.000606   0.603    0.00063    0.00083
        460    22 -108.777874 -108.777293    0.000581   0.603    0.00063    0.00083
        461    26 -108.777874 -108.777260    0.000614   0.603    0.00064    0.00083
        462    24 -108.777874 -108.777287    0.000587   0.603    0.00064    0.00082
        463    24 -108.777876 -108.777267    0.000610   0.603    0.00064    0.00082
        464    24 -108.777876 -108.777285    0.000591   0.603    0.00065    0.00082
        465    24 -108.777879 -108.777274    0.000606   0.603    0.00065    0.00082
        466    24 -108.777880 -108.777288    0.000592   0.603    0.00065    0.00082
        467    24 -108.777882 -108.777279    0.000603   0.603    0.00065    0.00082
        468    24 -108.777884 -108.777288    0.000597   0.603    0.00065    0.00082
        469    31 -108.777883 -108.777279    0.000604   0.603    0.00066    0.00082
        470    22 -108.777890 -108.777296    0.000594   0.603    0.00066    0.00082
        471    24 -108.777887 -108.777278    0.000610   0.603    0.00066    0.00082
        472    22 -108.777894 -108.777289    0.000606   0.603    0.00066    0.00082
        473    32 -108.777889 -108.777275    0.000614   0.603    0.00065    0.00082
        474    22 -108.777896 -108.777297    0.000599   0.603    0.00065    0.00082
        475    26 -108.777895 -108.777272    0.000624   0.603    0.00065    0.00082
        476    24 -108.777896 -108.777291    0.000605   0.603    0.00065    0.00081
        477    30 -108.777896 -108.777271    0.000625   0.603    0.00064    0.00081
        478    22 -108.777898 -108.777297    0.000601   0.603    0.00064    0.00081
        479    30 -108.777896 -108.777268    0.000628   0.603    0.00063    0.00081
        480    18 -108.777896 -108.777314    0.000582   0.603    0.00063    0.00081
        481    24 -108.777898 -108.777259    0.000639   0.603    0.00063    0.00081
        482    17 -108.777899 -108.777307    0.000592   0.603    0.00062    0.00081
        483    28 -108.777901 -108.777259    0.000642   0.603    0.00062    0.00081
        484    16 -108.777901 -108.777307    0.000594   0.603    0.00061    0.00081
        485    24 -108.777902 -108.777270    0.000632   0.603    0.00061    0.00081
        486    17 -108.777903 -108.777312    0.000591   0.603    0.00061    0.00081
        487    28 -108.777906 -108.777263    0.000643   0.603    0.00061    0.00081
        488    16 -108.777907 -108.777314    0.000593   0.603    0.00060    0.00081
        489    24 -108.777908 -108.777274    0.000634   0.603    0.00060    0.00081
        490    26 -108.777913 -108.777295    0.000617   0.603    0.00060    0.00081
        491    26 -108.777910 -108.777281    0.000629   0.603    0.00059    0.00081
        492    24 -108.777911 -108.777296    0.000615   0.603    0.00059    0.00081
        493    24 -108.777912 -108.777285    0.000627   0.603    0.00059    0.00081
        494    30 -108.777913 -108.777296    0.000617   0.603    0.00059    0.00081
        495    24 -108.777916 -108.777299    0.000617   0.603    0.00059    0.00080
        496    28 -108.777918 -108.777292    0.000625   0.603    0.00059    0.00080
        497    24 -108.777918 -108.777298    0.000620   0.603    0.00059    0.00080
        498    31 -108.777922 -108.777290    0.000632   0.603    0.00059    0.00080
        499    24 -108.777919 -108.777301    0.000618   0.603    0.00059    0.00080
        500    28 -108.777923 -108.777288    0.000635   0.603    0.00059    0.00080
        501    26 -108.777924 -108.777299    0.000624   0.603    0.00059    0.00080
        502    30 -108.777923 -108.777292    0.000631   0.603    0.00059    0.00080
        503    24 -108.777927 -108.777305    0.000622   0.603    0.00059    0.00080
        504    30 -108.777928 -108.777291    0.000637   0.603    0.00059    0.00080
        505    24 -108.777929 -108.777312    0.000618   0.603    0.00059    0.00080
        506    32 -108.777931 -108.777288    0.000643   0.603    0.00060    0.00080
        507    24 -108.777932 -108.777313    0.000619   0.603    0.00060    0.00080
        508    32 -108.777937 -108.777286    0.000650   0.603    0.00060    0.00079
        509    24 -108.777934 -108.777313    0.000621   0.603    0.00060    0.00079
        510    30 -108.777940 -108.777287    0.000652   0.603    0.00060    0.00079
        511    24 -108.777938 -108.777312    0.000626   0.603    0.00060    0.00079
        512    30 -108.777942 -108.777290    0.000652   0.603    0.00060    0.00079
        513    24 -108.777942 -108.777315    0.000627   0.603    0.00060    0.00079
        514    33 -108.777946 -108.777292    0.000654   0.603    0.00060    0.00079
        515    26 -108.777945 -108.777314    0.000631   0.603    0.00060    0.00079
        516    32 -108.777949 -108.777296    0.000653   0.603    0.00060    0.00079
        517    24 -108.777948 -108.777313    0.000636   0.603    0.00060    0.00079
        518    30 -108.777953 -108.777294    0.000659   0.603    0.00060    0.00079
        519    24 -108.777952 -108.777316    0.000635   0.603    0.00060    0.00079
        520    32 -108.777955 -108.777294    0.000661   0.603    0.00060    0.00079
        521    24 -108.777956 -108.777319    0.000637   0.603    0.00060    0.00079
        522    34 -108.777958 -108.777295    0.000663   0.603    0.00060    0.00079
        523    26 -108.777960 -108.777317    0.000643   0.603    0.00060    0.00079
        524    30 -108.777965 -108.777301    0.000665   0.603    0.00060    0.00079
        525    24 -108.777963 -108.777316    0.000648   0.603    0.00060    0.00078
        526    34 -108.777966 -108.777301    0.000665   0.603    0.00060    0.00078
        527    26 -108.777971 -108.777316    0.000655   0.603    0.00060    0.00078
        528    32 -108.777969 -108.777304    0.000665   0.603    0.00060    0.00078
        529    24 -108.777973 -108.777317    0.000656   0.603    0.00060    0.00078
        530    30 -108.777974 -108.777302    0.000672   0.603    0.00060    0.00078
        531    24 -108.777977 -108.777321    0.000656   0.603    0.00060    0.00078
        532    30 -108.777978 -108.777301    0.000678   0.603    0.00061    0.00078
        533    24 -108.777980 -108.777323    0.000657   0.603    0.00061    0.00078
        534    30 -108.777982 -108.777301    0.000681   0.603    0.00061    0.00078
        535    24 -108.777985 -108.777324    0.000660   0.603    0.00061    0.00078
        536    30 -108.777984 -108.777301    0.000684   0.603    0.00061    0.00078
        537    24 -108.777989 -108.777326    0.000663   0.603    0.00062    0.00078
        538    30 -108.777989 -108.777302    0.000688   0.603    0.00062    0.00078
        539    24 -108.777993 -108.777327    0.000666   0.603    0.00062    0.00078
        540    30 -108.777994 -108.777303    0.000692   0.603    0.00062    0.00078
        541    22 -108.777996 -108.777329    0.000668   0.603    0.00063    0.00078
        542    30 -108.777996 -108.777302    0.000693   0.603    0.00063    0.00077
        543    22 -108.778001 -108.777329    0.000672   0.603    0.00063    0.00077
        544    32 -108.778001 -108.777303    0.000698   0.603    0.00064    0.00077
        545    24 -108.778003 -108.777330    0.000673   0.603    0.00064    0.00077
        546    32 -108.778003 -108.777306    0.000697   0.603    0.00064    0.00077
        547    24 -108.778007 -108.777328    0.000679   0.603    0.00065    0.00077
        548    30 -108.778009 -108.777307    0.000702   0.603    0.00065    0.00077
        549    24 -108.778010 -108.777329    0.000681   0.603    0.00065    0.00077
        550    30 -108.778013 -108.777309    0.000703   0.603    0.00065    0.00077
        551    24 -108.778013 -108.777330    0.000682   0.603    0.00066    0.00077
        552    30 -108.778017 -108.777310    0.000708   0.603    0.00066    0.00077
        553    24 -108.778017 -108.777332    0.000685   0.603    0.00066    0.00077
        554    30 -108.778019 -108.777311    0.000709   0.603    0.00066    0.00077
        555    24 -108.778021 -108.777333    0.000688   0.603    0.00067    0.00077
        556    32 -108.778024 -108.777312    0.000712   0.603    0.00066    0.00077
        557    25 -108.778038 -108.777379    0.000659   0.603    0.00065    0.00077
        558    30 -108.778073 -108.777418    0.000656   0.603    0.00067    0.00077
        559    32 -108.778099 -108.777444    0.000655   0.603    0.00071    0.00076
        560    30 -108.778122 -108.777428    0.000694   0.603    0.00075    0.00076
        561    32 -108.778132 -108.777392    0.000740   0.603    0.00079    0.00076
        562    30 -108.778134 -108.777337    0.000797   0.603    0.00080    0.00076
        563    32 -108.778127 -108.777293    0.000833   0.603    0.00079    0.00076
        564    26 -108.778127 -108.777274    0.000853   0.603    0.00077    0.00076
        565    34 -108.778114 -108.777273    0.000840   0.603    0.00075    0.00076
        566    26 -108.778121 -108.777306    0.000815   0.603    0.00073    0.00076
        567    34 -108.778113 -108.777315    0.000797   0.603    0.00073    0.00076
        568    26 -108.778123 -108.777344    0.000779   0.603    0.00074    0.00076
        569    34 -108.778112 -108.777329    0.000783   0.603    0.00074    0.00076
        570    26 -108.778121 -108.777330    0.000792   0.603    0.00075    0.00076
        571    34 -108.778104 -108.777304    0.000800   0.603    0.00074    0.00076
        572    26 -108.778110 -108.777302    0.000808   0.603    0.00073    0.00076
        573    35 -108.778098 -108.777296    0.000802   0.603    0.00072    0.00076
        574    28 -108.778105 -108.777309    0.000797   0.603    0.00071    0.00075
        575    30 -108.778098 -108.777328    0.000770   0.603    0.00071    0.00075
        576    30 -108.778109 -108.777349    0.000760   0.603    0.00071    0.00075
        577    31 -108.778110 -108.777361    0.000750   0.603    0.00073    0.00075
        578    30 -108.778126 -108.777371    0.000755   0.603    0.00074    0.00075
        579    34 -108.778126 -108.777367    0.000759   0.603    0.00075    0.00075
        580    26 -108.778144 -108.777363    0.000781   0.603    0.00076    0.00075
        581    34 -108.778141 -108.777351    0.000790   0.603    0.00077    0.00075
        582    26 -108.778156 -108.777351    0.000805   0.603    0.00077    0.00075
        583    35 -108.778148 -108.777334    0.000814   0.603    0.00078    0.00075
        584    26 -108.778158 -108.777334    0.000824   0.603    0.00077    0.00075
        585    34 -108.778146 -108.777325    0.000821   0.603    0.00077    0.00075
        586    30 -108.778154 -108.777330    0.000823   0.603    0.00077    0.00075
        587    32 -108.778146 -108.777319    0.000827   0.603    0.00076    0.00075
        588    30 -108.778146 -108.777328    0.000818   0.603    0.00076    0.00075
        589    32 -108.778140 -108.777316    0.000824   0.603    0.00075    0.00075
        590    30 -108.778139 -108.777328    0.000812   0.603    0.00075    0.00074
        591    30 -108.778139 -108.777323    0.000816   0.603    0.00075    0.00074
        592    26 -108.778139 -108.777337    0.000802   0.603    0.00074    0.00074
        593    34 -108.778132 -108.777330    0.000802   0.603    0.00074    0.00074
        594    26 -108.778146 -108.777353    0.000794   0.603    0.00075    0.00074
        595    35 -108.778138 -108.777345    0.000793   0.603    0.00075    0.00074
        596    26 -108.778153 -108.777363    0.000790   0.603    0.00075    0.00074
        597    34 -108.778148 -108.777356    0.000791   0.603    0.00076    0.00074
        598    26 -108.778163 -108.777368    0.000795   0.603    0.00077    0.00074
        599    34 -108.778159 -108.777360    0.000800   0.603    0.00078    0.00074

        ==> Orbital Optimization <==

            Orbital Optimization converged in   3 iterations 
            Total energy change: -1.153531e-06
            Final gradient norm: 9.151068e-05

        600    24 -108.778179 -108.777464    0.000715   0.666    0.00082    0.00074
        601    35 -108.778179 -108.777372    0.000807   0.666    0.00084    0.00075
        602    26 -108.778197 -108.777383    0.000814   0.666    0.00087    0.00075
        603    34 -108.778188 -108.777360    0.000828   0.666    0.00088    0.00075
        604    26 -108.778201 -108.777350    0.000851   0.666    0.00089    0.00075
        605    34 -108.778189 -108.777326    0.000863   0.666    0.00088    0.00075
        606    26 -108.778200 -108.777320    0.000880   0.666    0.00087    0.00075
        607    34 -108.778189 -108.777311    0.000878   0.666    0.00085    0.00074
        608    30 -108.778198 -108.777323    0.000875   0.666    0.00084    0.00074
        609    30 -108.778187 -108.777328    0.000859   0.666    0.00084    0.00074
        610    30 -108.778196 -108.777341    0.000855   0.666    0.00084    0.00074
        611    32 -108.778191 -108.777344    0.000848   0.666    0.00085    0.00074
        612    30 -108.778196 -108.777352    0.000845   0.666    0.00085    0.00074
        613    34 -108.778191 -108.777345    0.000846   0.666    0.00085    0.00074
        614    30 -108.778201 -108.777344    0.000856   0.666    0.00085    0.00074
        615    34 -108.778193 -108.777341    0.000852   0.666    0.00085    0.00074
        616    30 -108.778203 -108.777344    0.000859   0.666    0.00085    0.00074
        617    34 -108.778196 -108.777348    0.000848   0.666    0.00085    0.00074
        618    30 -108.778208 -108.777355    0.000852   0.666    0.00086    0.00074
        619    32 -108.778207 -108.777361    0.000846   0.666    0.00086    0.00074
        620    31 -108.778211 -108.777368    0.000842   0.666    0.00087    0.00074
        621    32 -108.778214 -108.777363    0.000851   0.666    0.00088    0.00074
        622    29 -108.778219 -108.777366    0.000853   0.666    0.00089    0.00074
        623    34 -108.778218 -108.777356    0.000862   0.666    0.00089    0.00074
        624    29 -108.778223 -108.777354    0.000869   0.666    0.00089    0.00074
        625    34 -108.778221 -108.777349    0.000872   0.666    0.00089    0.00073
        626    30 -108.778225 -108.777351    0.000874   0.666    0.00089    0.00073
        627    30 -108.778226 -108.777348    0.000877   0.666    0.00089    0.00073
        628    32 -108.778225 -108.777356    0.000869   0.666    0.00089    0.00073
        629    30 -108.778228 -108.777352    0.000876   0.666    0.00089    0.00073
        630    32 -108.778227 -108.777362    0.000865   0.666    0.00089    0.00073
        631    31 -108.778231 -108.777355    0.000876   0.666    0.00090    0.00073
        632    32 -108.778232 -108.777362    0.000870   0.666    0.00090    0.00073
        633    34 -108.778228 -108.777356    0.000873   0.666    0.00090    0.00073
        634    30 -108.778236 -108.777359    0.000877   0.666    0.00090    0.00073
        635    32 -108.778232 -108.777358    0.000874   0.666    0.00090    0.00073
        636    28 -108.778242 -108.777362    0.000880   0.666    0.00091    0.00073
        637    34 -108.778229 -108.777356    0.000873   0.666    0.00090    0.00073
        638    28 -108.778246 -108.777369    0.000877   0.666    0.00091    0.00073
        639    34 -108.778233 -108.777361    0.000872   0.666    0.00091    0.00073
        640    30 -108.778247 -108.777374    0.000873   0.666    0.00092    0.00073
        641    34 -108.778241 -108.777366    0.000875   0.666    0.00092    0.00073
        642    32 -108.778251 -108.777374    0.000876   0.666    0.00092    0.00073
        643    32 -108.778249 -108.777367    0.000882   0.666    0.00093    0.00072
        644    32 -108.778255 -108.777373    0.000882   0.666    0.00093    0.00072
        645    32 -108.778252 -108.777366    0.000887   0.666    0.00093    0.00072
        646    32 -108.778257 -108.777371    0.000886   0.666    0.00093    0.00072
        647    32 -108.778258 -108.777365    0.000893   0.666    0.00094    0.00072
        648    32 -108.778260 -108.777370    0.000890   0.666    0.00094    0.00072
        649    30 -108.778260 -108.777366    0.000894   0.666    0.00094    0.00072
        650    32 -108.778259 -108.777370    0.000889   0.666    0.00094    0.00072
        651    32 -108.778265 -108.777366    0.000899   0.666    0.00094    0.00072
        652    30 -108.778262 -108.777372    0.000890   0.666    0.00094    0.00072
        653    33 -108.778265 -108.777367    0.000898   0.666    0.00095    0.00072
        654    32 -108.778266 -108.777374    0.000892   0.666    0.00094    0.00072
        655    34 -108.778264 -108.777370    0.000895   0.666    0.00095    0.00072
        656    30 -108.778268 -108.777375    0.000893   0.666    0.00095    0.00072
        657    32 -108.778269 -108.777372    0.000897   0.666    0.00095    0.00072
        658    28 -108.778275 -108.777378    0.000897   0.666    0.00095    0.00072
        659    34 -108.778269 -108.777372    0.000897   0.666    0.00096    0.00072
        660    28 -108.778279 -108.777383    0.000897   0.666    0.00096    0.00072
        661    32 -108.778276 -108.777375    0.000901   0.666    0.00096    0.00072
        662    25 -108.778279 -108.777387    0.000892   0.666    0.00096    0.00072
        663    32 -108.778282 -108.777371    0.000911   0.666    0.00097    0.00071
        664    28 -108.778286 -108.777390    0.000896   0.666    0.00097    0.00071
        665    34 -108.778281 -108.777372    0.000909   0.666    0.00097    0.00071
        666    25 -108.778288 -108.777390    0.000898   0.666    0.00097    0.00071
        667    34 -108.778285 -108.777369    0.000916   0.666    0.00098    0.00071
        668    24 -108.778292 -108.777391    0.000901   0.666    0.00098    0.00071
        669    32 -108.778288 -108.777369    0.000919   0.666    0.00098    0.00071
        670    24 -108.778294 -108.777393    0.000901   0.666    0.00098    0.00071
        671    34 -108.778288 -108.777370    0.000918   0.666    0.00098    0.00071
        672    24 -108.778297 -108.777395    0.000903   0.666    0.00098    0.00071
        673    32 -108.778294 -108.777373    0.000921   0.666    0.00099    0.00071
        674    28 -108.778299 -108.777395    0.000904   0.666    0.00099    0.00071
        675    30 -108.778296 -108.777382    0.000915   0.666    0.00099    0.00071
        676    28 -108.778302 -108.777391    0.000911   0.666    0.00099    0.00071
        677    34 -108.778298 -108.777385    0.000914   0.666    0.00100    0.00071
        678    28 -108.778308 -108.777394    0.000915   0.666    0.00100    0.00071
        679    34 -108.778301 -108.777387    0.000914   0.666    0.00100    0.00071
        680    28 -108.778312 -108.777394    0.000917   0.666    0.00101    0.00070
        681    28 -108.778310 -108.777390    0.000920   0.666    0.00101    0.00070
        682    30 -108.778310 -108.777389    0.000922   0.666    0.00101    0.00070
        683    26 -108.778310 -108.777398    0.000912   0.666    0.00101    0.00070
        684    32 -108.778316 -108.777385    0.000931   0.666    0.00101    0.00070
        685    26 -108.778315 -108.777402    0.000913   0.666    0.00102    0.00070
        686    30 -108.778317 -108.777383    0.000934   0.666    0.00102    0.00070
        687    26 -108.778317 -108.777403    0.000915   0.666    0.00102    0.00070
        688    31 -108.778322 -108.777384    0.000938   0.666    0.00102    0.00070
        689    26 -108.778318 -108.777405    0.000913   0.666    0.00103    0.00070
        690    31 -108.778326 -108.777385    0.000941   0.666    0.00103    0.00070
        691    26 -108.778321 -108.777406    0.000915   0.666    0.00103    0.00070
        692    30 -108.778328 -108.777388    0.000940   0.666    0.00103    0.00070
        693    26 -108.778329 -108.777406    0.000923   0.666    0.00104    0.00070
        694    32 -108.778329 -108.777390    0.000939   0.666    0.00104    0.00070
        695    26 -108.778327 -108.777408    0.000919   0.666    0.00104    0.00070
        696    32 -108.778334 -108.777390    0.000944   0.666    0.00104    0.00070
        697    26 -108.778329 -108.777409    0.000921   0.666    0.00105    0.00070
        698    32 -108.778338 -108.777392    0.000946   0.666    0.00105    0.00069
        699    26 -108.778339 -108.777410    0.000929   0.666    0.00105    0.00069
        700    32 -108.778337 -108.777393    0.000944   0.666    0.00105    0.00069
        701    26 -108.778339 -108.777411    0.000927   0.666    0.00106    0.00069
        702    32 -108.778343 -108.777394    0.000949   0.666    0.00106    0.00069
        703    27 -108.778346 -108.777412    0.000933   0.666    0.00106    0.00069
        704    31 -108.778344 -108.777395    0.000948   0.666    0.00106    0.00069
        705    26 -108.778350 -108.777413    0.000936   0.666    0.00107    0.00069
        706    30 -108.778344 -108.777395    0.000949   0.666    0.00107    0.00069
        707    26 -108.778351 -108.777414    0.000937   0.666    0.00107    0.00069
        708    32 -108.778300 -108.777396    0.000904   0.666    0.00096    0.00069
        709    26 -108.778273 -108.777453    0.000820   0.666    0.00091    0.00069
        710    32 -108.778259 -108.777463    0.000797   0.666    0.00090    0.00069
        711    26 -108.778250 -108.777487    0.000763   0.666    0.00088    0.00069
        712    34 -108.778245 -108.777465    0.000781   0.666    0.00088    0.00069
        713    30 -108.778256 -108.777458    0.000798   0.666    0.00088    0.00069
        714    34 -108.778256 -108.777412    0.000844   0.666    0.00089    0.00069
        715    32 -108.778263 -108.777386    0.000878   0.666    0.00089    0.00069
        716    28 -108.778260 -108.777363    0.000897   0.666    0.00089    0.00069
        717    34 -108.778179 -108.777360    0.000819   0.666    0.00072    0.00069
        718    24 -108.778181 -108.777442    0.000738   0.666    0.00072    0.00069
        719    32 -108.778148 -108.777489    0.000659   0.666    0.00068    0.00069
        720    24 -108.778147 -108.777587    0.000560   0.666    0.00069    0.00069
        721    30 -108.778141 -108.777611    0.000530   0.666    0.00069    0.00070
        722    26 -108.778141 -108.777655    0.000486   0.666    0.00070    0.00070
        723    24 -108.778136 -108.777631    0.000505   0.666    0.00071    0.00070
        724    26 -108.778127 -108.777607    0.000520   0.666    0.00071    0.00069
        725    26 -108.778110 -108.777571    0.000539   0.666    0.00071    0.00069
        726    24 -108.778100 -108.777533    0.000567   0.666    0.00070    0.00069
        727    24 -108.778089 -108.777494    0.000595   0.666    0.00070    0.00068
        728    24 -108.778082 -108.777461    0.000621   0.666    0.00069    0.00068
        729    24 -108.778080 -108.777426    0.000654   0.666    0.00068    0.00068
        730    25 -108.778078 -108.777396    0.000683   0.666    0.00068    0.00068
        731    24 -108.778082 -108.777365    0.000717   0.666    0.00067    0.00068
        732    26 -108.778086 -108.777336    0.000750   0.666    0.00066    0.00068
        733    24 -108.778091 -108.777312    0.000779   0.666    0.00065    0.00068
        734    32 -108.778096 -108.777290    0.000806   0.666    0.00064    0.00068
        735    24 -108.778108 -108.777280    0.000828   0.666    0.00063    0.00069
        736    32 -108.778110 -108.777267    0.000843   0.666    0.00063    0.00069
        737    26 -108.778123 -108.777273    0.000850   0.666    0.00062    0.00069
        738    32 -108.778125 -108.777274    0.000852   0.666    0.00062    0.00068
        739    32 -108.778132 -108.777299    0.000834   0.666    0.00061    0.00068
        740    34 -108.778135 -108.777316    0.000819   0.666    0.00061    0.00068
        741    32 -108.778137 -108.777346    0.000791   0.666    0.00060    0.00068
        742    32 -108.778139 -108.777377    0.000762   0.666    0.00060    0.00068
        743    31 -108.778138 -108.777408    0.000730   0.666    0.00059    0.00067
        744    32 -108.778135 -108.777441    0.000694   0.666    0.00059    0.00067
        745    32 -108.778129 -108.777466    0.000663   0.666    0.00058    0.00067
        746    33 -108.778122 -108.777494    0.000629   0.666    0.00057    0.00067
        747    32 -108.778119 -108.777509    0.000610   0.666    0.00057    0.00068
        748    32 -108.778108 -108.777527    0.000581   0.666    0.00056    0.00068
        749    34 -108.778100 -108.777532    0.000567   0.666    0.00055    0.00068
        750    32 -108.778093 -108.777539    0.000554   0.666    0.00054    0.00068
        751    34 -108.778082 -108.777537    0.000545   0.666    0.00054    0.00068
        752    30 -108.778079 -108.777529    0.000550   0.666    0.00054    0.00067
        753    32 -108.778067 -108.777520    0.000547   0.666    0.00054    0.00067
        754    31 -108.778065 -108.777503    0.000562   0.666    0.00054    0.00067
        755    32 -108.778058 -108.777482    0.000575   0.666    0.00054    0.00067
        756    32 -108.778057 -108.777463    0.000594   0.666    0.00054    0.00067
        757    34 -108.778050 -108.777437    0.000613   0.666    0.00053    0.00067
        758    32 -108.778054 -108.777415    0.000638   0.666    0.00053    0.00067
        759    32 -108.778054 -108.777393    0.000662   0.666    0.00052    0.00067
        760    32 -108.778055 -108.777376    0.000680   0.666    0.00051    0.00067
        761    35 -108.778059 -108.777357    0.000702   0.666    0.00051    0.00067
        762    32 -108.778063 -108.777348    0.000716   0.666    0.00050    0.00067
        763    34 -108.778064 -108.777340    0.000724   0.666    0.00050    0.00067
        764    34 -108.778072 -108.777338    0.000734   0.666    0.00049    0.00067
        765    34 -108.778076 -108.777339    0.000736   0.666    0.00049    0.00067
        766    32 -108.778081 -108.777348    0.000733   0.666    0.00049    0.00066
        767    37 -108.778082 -108.777356    0.000726   0.666    0.00048    0.00066
        768    31 -108.778089 -108.777370    0.000719   0.666    0.00048    0.00066
[...]
       2734    26 -108.778098 -108.778097    0.000001   0.525    0.00006    0.00013
       2735    24 -108.778098 -108.778097    0.000001   0.525    0.00006    0.00013
       2736    24 -108.778099 -108.778097    0.000002   0.525    0.00006    0.00013
       2737    25 -108.778099 -108.778097    0.000001   0.525    0.00006    0.00013
       2738    25 -108.778099 -108.778097    0.000002   0.525    0.00006    0.00013
       2739    25 -108.778099 -108.778098    0.000001   0.525    0.00006    0.00013
       2740    23 -108.778099 -108.778098    0.000002   0.525    0.00005    0.00013
       2741    24 -108.778099 -108.778098    0.000001   0.525    0.00005    0.00013
       2742    25 -108.778099 -108.778098    0.000001   0.525    0.00005    0.00013
       2743    23 -108.778099 -108.778098    0.000001   0.525    0.00005    0.00013
       2744    26 -108.778099 -108.778098    0.000001   0.525    0.00005    0.00013
       2745    24 -108.778099 -108.778098    0.000001   0.525    0.00005    0.00013
       2746    24 -108.778099 -108.778098    0.000001   0.525    0.00005    0.00013
       2747    25 -108.778099 -108.778098    0.000000   0.525    0.00005    0.00013
       2748    24 -108.778099 -108.778098    0.000001   0.525    0.00005    0.00013
       2749    31 -108.778099 -108.778098    0.000000   0.525    0.00005    0.00013
       2750    20 -108.778099 -108.778099    0.000000   0.525    0.00005    0.00013
       2751    25 -108.778098 -108.778098    0.000000   0.525    0.00005    0.00013
       2752    24 -108.778098 -108.778099    0.000001   0.525    0.00005    0.00013
       2753    25 -108.778099 -108.778098    0.000001   0.525    0.00005    0.00013
       2754    24 -108.778098 -108.778099    0.000001   0.525    0.00005    0.00013
       2755    28 -108.778098 -108.778098    0.000000   0.525    0.00005    0.00013
       2756    22 -108.778098 -108.778099    0.000001   0.525    0.00005    0.00013
       2757    24 -108.778098 -108.778098    0.000000   0.525    0.00005    0.00013
       2758    24 -108.778098 -108.778099    0.000001   0.525    0.00005    0.00013
       2759    26 -108.778098 -108.778097    0.000000   0.525    0.00005    0.00013
       2760    16 -108.778098 -108.778100    0.000002   0.525    0.00005    0.00013
       2761    22 -108.778097 -108.778096    0.000001   0.525    0.00005    0.00013
       2762    15 -108.778097 -108.778099    0.000002   0.525    0.00005    0.00013
       2763    24 -108.778097 -108.778096    0.000001   0.525    0.00005    0.00013
       2764    16 -108.778097 -108.778099    0.000003   0.525    0.00005    0.00013
       2765    17 -108.778097 -108.778095    0.000001   0.525    0.00006    0.00013
       2766    25 -108.778097 -108.778098    0.000002   0.525    0.00006    0.00013
       2767    24 -108.778096 -108.778097    0.000001   0.525    0.00006    0.00013
       2768    24 -108.778096 -108.778097    0.000001   0.525    0.00006    0.00013
       2769    29 -108.778095 -108.778097    0.000002   0.525    0.00006    0.00013
       2770    24 -108.778096 -108.778097    0.000002   0.525    0.00006    0.00013
       2771    30 -108.778095 -108.778097    0.000002   0.525    0.00006    0.00013
       2772    24 -108.778095 -108.778098    0.000003   0.525    0.00006    0.00013
       2773    30 -108.778094 -108.778097    0.000003   0.525    0.00006    0.00013
       2774    23 -108.778094 -108.778098    0.000004   0.525    0.00006    0.00013
       2775    32 -108.778093 -108.778097    0.000004   0.525    0.00006    0.00013
       2776    24 -108.778094 -108.778099    0.000005   0.525    0.00006    0.00013
       2777    24 -108.778093 -108.778098    0.000005   0.525    0.00006    0.00013
       2778    24 -108.778094 -108.778099    0.000005   0.525    0.00006    0.00013
       2779    31 -108.778093 -108.778098    0.000005   0.525    0.00006    0.00013
       2780    24 -108.778093 -108.778099    0.000006   0.525    0.00006    0.00013
       2781    31 -108.778093 -108.778098    0.000005   0.525    0.00006    0.00013
       2782    24 -108.778093 -108.778100    0.000007   0.525    0.00006    0.00013
       2783    24 -108.778093 -108.778099    0.000006   0.525    0.00006    0.00013
       2784    26 -108.778094 -108.778101    0.000007   0.525    0.00006    0.00013
       2785    32 -108.778093 -108.778100    0.000007   0.525    0.00006    0.00013
       2786    24 -108.778094 -108.778101    0.000008   0.525    0.00006    0.00013
       2787    31 -108.778093 -108.778100    0.000007   0.525    0.00005    0.00013
       2788    22 -108.778094 -108.778102    0.000008   0.525    0.00005    0.00013
       2789    24 -108.778094 -108.778101    0.000007   0.525    0.00005    0.00013
       2790    25 -108.778095 -108.778102    0.000007   0.525    0.00005    0.00013
       2791    24 -108.778094 -108.778102    0.000007   0.525    0.00005    0.00013
       2792    24 -108.778095 -108.778102    0.000007   0.525    0.00005    0.00013
       2793    30 -108.778095 -108.778101    0.000006   0.525    0.00005    0.00013
       2794    25 -108.778095 -108.778102    0.000007   0.525    0.00005    0.00013
       2795    26 -108.778096 -108.778101    0.000006   0.525    0.00005    0.00013
       2796    26 -108.778096 -108.778102    0.000006   0.525    0.00005    0.00013
       2797    31 -108.778096 -108.778101    0.000005   0.525    0.00005    0.00013
       2798    25 -108.778097 -108.778102    0.000005   0.525    0.00005    0.00013
       2799    32 -108.778097 -108.778101    0.000004   0.525    0.00005    0.00013

        ==> Orbital Optimization <==

            Orbital Optimization converged in   2 iterations 
            Total energy change: -3.763319e-09
            Final gradient norm: 8.287797e-06

       2800    24 -108.778098 -108.778105    0.000007   0.211    0.00005    0.00013
       2801    26 -108.778096 -108.778101    0.000005   0.211    0.00005    0.00013
       2802    18 -108.778099 -108.778101    0.000002   0.211    0.00005    0.00013
       2803    18 -108.778099 -108.778101    0.000002   0.211    0.00006    0.00013
       2804    16 -108.778102 -108.778100    0.000002   0.211    0.00006    0.00013
       2805    24 -108.778102 -108.778100    0.000002   0.211    0.00006    0.00013
       2806    16 -108.778103 -108.778099    0.000003   0.211    0.00006    0.00013
       2807    18 -108.778102 -108.778100    0.000002   0.211    0.00006    0.00013
       2808    22 -108.778104 -108.778099    0.000004   0.211    0.00006    0.00012
       2809    16 -108.778103 -108.778100    0.000003   0.211    0.00006    0.00012
       2810    24 -108.778104 -108.778100    0.000004   0.211    0.00007    0.00012
       2811    11 -108.778104 -108.778101    0.000003   0.211    0.00007    0.00012
       2812    25 -108.778104 -108.778100    0.000004   0.211    0.00007    0.00012
       2813     9 -108.778104 -108.778100    0.000003   0.211    0.00007    0.00012
       2814    24 -108.778103 -108.778100    0.000003   0.211    0.00007    0.00012
       2815    11 -108.778102 -108.778100    0.000001   0.211    0.00007    0.00012
       2816    24 -108.778103 -108.778100    0.000003   0.211    0.00007    0.00012
       2817    11 -108.778101 -108.778100    0.000001   0.211    0.00007    0.00012
       2818    24 -108.778102 -108.778100    0.000002   0.211    0.00007    0.00012
       2819    18 -108.778102 -108.778100    0.000002   0.211    0.00007    0.00012
       2820    24 -108.778101 -108.778100    0.000001   0.211    0.00007    0.00012
       2821    16 -108.778101 -108.778099    0.000002   0.211    0.00007    0.00012
       2822    24 -108.778101 -108.778100    0.000001   0.211    0.00007    0.00012
       2823    15 -108.778100 -108.778099    0.000001   0.211    0.00007    0.00012
       2824    24 -108.778100 -108.778100    0.000001   0.211    0.00007    0.00012
       2825    15 -108.778100 -108.778100    0.000000   0.211    0.00007    0.00012
       2826    24 -108.778100 -108.778100    0.000000   0.211    0.00007    0.00012
       2827    15 -108.778100 -108.778100    0.000000   0.211    0.00007    0.00012
       2828    24 -108.778100 -108.778100    0.000000   0.211    0.00006    0.00012
       2829    15 -108.778100 -108.778100    0.000000   0.211    0.00006    0.00012
       2830    24 -108.778100 -108.778100    0.000000   0.211    0.00006    0.00012
       2831    15 -108.778101 -108.778100    0.000001   0.211    0.00006    0.00012
       2832    24 -108.778101 -108.778099    0.000001   0.211    0.00006    0.00012
       2833    14 -108.778101 -108.778100    0.000001   0.211    0.00006    0.00012
       2834    24 -108.778101 -108.778099    0.000002   0.211    0.00006    0.00012
       2835    15 -108.778101 -108.778100    0.000001   0.211    0.00006    0.00012
       2836    24 -108.778101 -108.778099    0.000002   0.211    0.00006    0.00012
       2837    15 -108.778101 -108.778100    0.000002   0.211    0.00006    0.00012
       2838    23 -108.778101 -108.778099    0.000002   0.211    0.00006    0.00012
       2839    15 -108.778101 -108.778100    0.000001   0.211    0.00006    0.00012
       2840    24 -108.778100 -108.778099    0.000001   0.211    0.00006    0.00012
       2841    15 -108.778100 -108.778100    0.000000   0.211    0.00006    0.00012
       2842    24 -108.778100 -108.778099    0.000001   0.211    0.00006    0.00012
       2843    14 -108.778100 -108.778100    0.000000   0.211    0.00006    0.00012
       2844    24 -108.778098 -108.778098    0.000000   0.211    0.00006    0.00012
       2845    15 -108.778098 -108.778099    0.000001   0.211    0.00007    0.00012
       2846    24 -108.778098 -108.778098    0.000001   0.211    0.00007    0.00012
       2847    14 -108.778098 -108.778099    0.000002   0.211    0.00007    0.00012
       2848    18 -108.778096 -108.778099    0.000003   0.211    0.00007    0.00012
       2849    18 -108.778097 -108.778099    0.000002   0.211    0.00007    0.00012
       2850    24 -108.778095 -108.778099    0.000004   0.211    0.00007    0.00012
       2851    15 -108.778096 -108.778100    0.000004   0.211    0.00007    0.00012
       2852    24 -108.778095 -108.778098    0.000003   0.211    0.00008    0.00012
       2853    12 -108.778096 -108.778100    0.000003   0.211    0.00008    0.00011
       2854    24 -108.778095 -108.778099    0.000004   0.211    0.00008    0.00011
       2855     9 -108.778098 -108.778100    0.000002   0.211    0.00008    0.00011
       2856    24 -108.778093 -108.778099    0.000006   0.211    0.00008    0.00011
       2857    12 -108.778096 -108.778100    0.000004   0.211    0.00008    0.00011
       2858    24 -108.778095 -108.778100    0.000006   0.211    0.00008    0.00011
       2859    19 -108.778094 -108.778100    0.000006   0.211    0.00008    0.00011
       2860    18 -108.778095 -108.778100    0.000006   0.211    0.00008    0.00011
       2861    18 -108.778095 -108.778101    0.000006   0.211    0.00008    0.00011
       2862    24 -108.778094 -108.778099    0.000005   0.211    0.00008    0.00011
       2863    16 -108.778096 -108.778101    0.000005   0.211    0.00008    0.00011
       2864    24 -108.778095 -108.778099    0.000005   0.211    0.00008    0.00011
       2865    11 -108.778095 -108.778101    0.000006   0.211    0.00008    0.00011
       2866    24 -108.778095 -108.778100    0.000005   0.211    0.00008    0.00011
       2867    10 -108.778096 -108.778101    0.000006   0.211    0.00008    0.00011
       2868    24 -108.778096 -108.778101    0.000004   0.211    0.00008    0.00011
       2869    12 -108.778098 -108.778102    0.000004   0.211    0.00008    0.00011
       2870    24 -108.778096 -108.778101    0.000005   0.211    0.00008    0.00011
       2871    16 -108.778098 -108.778102    0.000004   0.211    0.00008    0.00011
       2872    24 -108.778096 -108.778101    0.000005   0.211    0.00008    0.00011
       2873    16 -108.778098 -108.778103    0.000005   0.211    0.00008    0.00011
       2874    24 -108.778096 -108.778101    0.000005   0.211    0.00008    0.00011
       2875    15 -108.778096 -108.778102    0.000006   0.211    0.00008    0.00011
       2876    24 -108.778098 -108.778101    0.000004   0.211    0.00008    0.00011
       2877    15 -108.778098 -108.778103    0.000005   0.211    0.00007    0.00011
       2878    24 -108.778097 -108.778101    0.000004   0.211    0.00007    0.00011
       2879    15 -108.778098 -108.778102    0.000005   0.211    0.00007    0.00011
       2880    24 -108.778098 -108.778102    0.000004   0.211    0.00007    0.00011
       2881    15 -108.778099 -108.778103    0.000004   0.211    0.00007    0.00011
       2882    24 -108.778098 -108.778102    0.000003   0.211    0.00007    0.00011
       2883    15 -108.778099 -108.778103    0.000004   0.211    0.00007    0.00011
       2884    24 -108.778099 -108.778102    0.000003   0.211    0.00007    0.00011
       2885    15 -108.778099 -108.778103    0.000003   0.211    0.00007    0.00011
       2886    24 -108.778099 -108.778102    0.000003   0.211    0.00007    0.00011
       2887    15 -108.778099 -108.778103    0.000003   0.211    0.00007    0.00011
       2888    24 -108.778100 -108.778102    0.000002   0.211    0.00007    0.00011
       2889    16 -108.778101 -108.778103    0.000002   0.211    0.00007    0.00011
       2890    24 -108.778099 -108.778102    0.000003   0.211    0.00007    0.00011
       2891    15 -108.778100 -108.778102    0.000003   0.211    0.00007    0.00011
       2892    24 -108.778101 -108.778102    0.000001   0.211    0.00007    0.00011
       2893    16 -108.778101 -108.778103    0.000002   0.211    0.00007    0.00011
       2894    24 -108.778101 -108.778102    0.000001   0.211    0.00007    0.00011
       2895    16 -108.778101 -108.778102    0.000002   0.211    0.00008    0.00011
       2896    24 -108.778101 -108.778102    0.000001   0.211    0.00008    0.00011
       2897    16 -108.778102 -108.778102    0.000001   0.211    0.00008    0.00011
       2898    24 -108.778101 -108.778102    0.000001   0.211    0.00008    0.00011
       2899    16 -108.778101 -108.778102    0.000001   0.211    0.00008    0.00011
       2900    24 -108.778101 -108.778102    0.000001   0.211    0.00008    0.00011
       2901    16 -108.778102 -108.778102    0.000000   0.211    0.00008    0.00011
       2902    24 -108.778101 -108.778102    0.000001   0.211    0.00008    0.00011
       2903    16 -108.778101 -108.778102    0.000001   0.211    0.00008    0.00011
       2904    24 -108.778101 -108.778102    0.000001   0.211    0.00008    0.00010
       2905    16 -108.778102 -108.778102    0.000000   0.211    0.00008    0.00010
       2906    24 -108.778101 -108.778102    0.000001   0.211    0.00008    0.00010
       2907    16 -108.778102 -108.778102    0.000000   0.211    0.00008    0.00010
       2908    24 -108.778102 -108.778102    0.000001   0.211    0.00008    0.00010
       2909    16 -108.778103 -108.778102    0.000001   0.211    0.00008    0.00010
       2910    25 -108.778101 -108.778102    0.000001   0.211    0.00008    0.00010
       2911    16 -108.778102 -108.778102    0.000001   0.211    0.00008    0.00010
       2912    24 -108.778103 -108.778102    0.000000   0.211    0.00008    0.00010
       2913    24 -108.778103 -108.778102    0.000001   0.211    0.00008    0.00010
       2914    25 -108.778102 -108.778102    0.000000   0.211    0.00008    0.00010
       2915    24 -108.778102 -108.778101    0.000001   0.211    0.00008    0.00010
       2916    24 -108.778103 -108.778102    0.000001   0.211    0.00008    0.00010
       2917    25 -108.778102 -108.778102    0.000001   0.211    0.00008    0.00010
       2918    25 -108.778103 -108.778101    0.000002   0.211    0.00008    0.00010
       2919    24 -108.778103 -108.778101    0.000001   0.211    0.00008    0.00010
       2920    24 -108.778103 -108.778101    0.000001   0.211    0.00008    0.00010
       2921    25 -108.778103 -108.778101    0.000001   0.211    0.00008    0.00010
       2922    24 -108.778103 -108.778101    0.000002   0.211    0.00008    0.00010
       2923    24 -108.778103 -108.778101    0.000002   0.211    0.00008    0.00010
       2924    24 -108.778104 -108.778101    0.000003   0.211    0.00008    0.00010
       2925    25 -108.778102 -108.778101    0.000001   0.211    0.00008    0.00010
       2926    24 -108.778103 -108.778101    0.000002   0.211    0.00008    0.00010
       2927    24 -108.778102 -108.778101    0.000001   0.211    0.00008    0.00010
       2928    25 -108.778103 -108.778101    0.000002   0.211    0.00008    0.00010
       2929    24 -108.778102 -108.778101    0.000001   0.211    0.00008    0.00010
       2930    24 -108.778103 -108.778101    0.000002   0.211    0.00008    0.00010
       2931    25 -108.778102 -108.778101    0.000000   0.211    0.00008    0.00010
       2932    24 -108.778103 -108.778101    0.000002   0.211    0.00008    0.00010
       2933    24 -108.778102 -108.778101    0.000001   0.211    0.00008    0.00010
       2934    25 -108.778102 -108.778101    0.000001   0.211    0.00008    0.00010
       2935    24 -108.778102 -108.778101    0.000000   0.211    0.00008    0.00010
       2936    24 -108.778102 -108.778101    0.000002   0.211    0.00008    0.00010

        ==> Orbital Optimization <==

            Orbital Optimization converged in   2 iterations 
            Total energy change: -5.791506e-09
            Final gradient norm: 1.215418e-05


      v2RDM iterations converged!

      v2RDM total spin [S(S+1)]:            -0.000007
    * v2RDM total energy:           -108.778102502540


 # Natural Orbital Occupation Numbers (alpha) #
 Irrep: 1
      1:  1.0000000
      2:  1.0000000
      3:  0.5794243
      4:  0.0000000
      5:  0.0000000
      6:  0.0000000
      7:  0.0000000

 Irrep: 2
      1:  0.0000000

 Irrep: 3
      1:  0.4840661
      2:  0.0000000
      3:  0.0000000

 Irrep: 4
      1:  0.4848030
      2:  0.0000000
      3:  0.0000000

 Irrep: 5
      1:  0.0000000

 Irrep: 6
      1:  1.0000000
      2:  1.0000000
      3:  0.4205778
      4:  0.0000000
      5:  0.0000000
      6:  0.0000000
      7:  0.0000000

 Irrep: 7
      1:  0.5151840
      2:  0.0000000
      3:  0.0000000

 Irrep: 8
      1:  0.5159449
      2:  0.0000000
      3:  0.0000000


 # Natural Orbital Occupation Numbers (beta) #
 Irrep: 1
      1:  1.0000000
      2:  1.0000000
      3:  0.5794251
      4:  0.0000000
      5:  0.0000000
      6:  0.0000000
      7:  0.0000000

 Irrep: 2
      1:  0.0000000

 Irrep: 3
      1:  0.4840607
      2:  0.0000000
      3:  0.0000000

 Irrep: 4
      1:  0.4848052
      2:  0.0000000
      3:  0.0000000

 Irrep: 5
      1:  0.0000000

 Irrep: 6
      1:  1.0000000
      2:  1.0000000
      3:  0.4205793
      4:  0.0000000
      5:  0.0000000
      6:  0.0000000
      7:  0.0000000

 Irrep: 7
      1:  0.5151990
      2:  0.0000000
      3:  0.0000000

 Irrep: 8
      1:  0.5159308
      2:  0.0000000
      3:  0.0000000


  ==> Iteration count <==

      Microiterations:                   85956
      Macroiterations:                    2937
      Orbital optimization steps:           15

  ==> Wall time <==

      Microiterations:                    4.15 s
      Macroiterations:                    2.01 s
      Orbital optimization:               0.18 s
      Total:                              6.55 s


*** tstop() called on ed4 at Tue Apr  5 16:25:24 2016
Module time:
	user time   =       6.71 seconds =       0.11 minutes
	system time =       0.01 seconds =       0.00 minutes
	total time  =          7 seconds =       0.12 minutes
Total time:
	user time   =       7.04 seconds =       0.12 minutes
	system time =       0.02 seconds =       0.00 minutes
	total time  =          7 seconds =       0.12 minutes
	SCF total energy..................................................PASSED
	v2RDM-CASSCF total energy.........................................PASSED

*** PSI4 exiting successfully. Buy a developer a beer!
