    -----------------------------------------------------------------------
          Psi4: An Open-Source Ab Initio Electronic Structure Package
                              Psi4 0.4.406 Driver

                          Git: Rev {master} 652792a dirty

    J. M. Turney, A. C. Simmonett, R. M. Parrish, E. G. Hohenstein,
    F. A. Evangelista, J. T. Fermann, B. J. Mintz, L. A. Burns, J. J. Wilke,
    M. L. Abrams, N. J. Russ, M. L. Leininger, C. L. Janssen, E. T. Seidl,
    W. D. Allen, H. F. Schaefer, R. A. King, E. F. Valeev, C. D. Sherrill,
    and T. D. Crawford, WIREs Comput. Mol. Sci. 2, 556-565 (2012)
    (doi: 10.1002/wcms.93)

                         Additional Contributions by
    A. E. DePrince, U. Bozkaya, A. Yu. Sokolov, D. G. A. Smith, R. Di Remigio,
    R. M. Richard, J. F. Gonthier, H. R. McAlexander, M. Saitow, and
    B. P. Pritchard
    -----------------------------------------------------------------------


    Psi4 started on: Mon May  9 11:54:55 2016

    Process ID:  49698
    PSI4DATADIR: /Users/deprince/psi4/install/debug/share/psi4
    Memory level set to 256.000 MB

  ==> Input File <==

--------------------------------------------------------------------------
#! cc-pvdz N2 (6,6) active space Test DQG

# job description:
print '        N2 / cc-pVDZ / DQG+T2(6,6), scf_type = PK, rNN = 1.1 A'

sys.path.insert(0, '../../..')
import v2rdm_casscf

molecule n2 {
0 1
n
n 1 r
}

set {
  basis cc-pvdz
  scf_type pk
  d_convergence      1e-10
  maxiter 500
  restricted_docc [ 2, 0, 0, 0, 0, 2, 0, 0 ]
  active          [ 1, 0, 1, 1, 0, 1, 1, 1 ]
}
set v2rdm_casscf {
  positivity dqgt2
  r_convergence  1e-4
  e_convergence  5e-4
  maxiter 20000
}

activate(n2)

n2.r     = 1.1
refscf   = -108.95379624015767 # TEST
refv2rdm = -109.091487394061   # TEST

energy('v2rdm-casscf')

compare_values(refscf, get_variable("SCF TOTAL ENERGY"), 8, "SCF total energy") # TEST
compare_values(refv2rdm, get_variable("CURRENT ENERGY"), 4, "v2RDM-CASSCF total energy") # TEST

--------------------------------------------------------------------------
/Users/deprince/chem/v2rdm_casscf/v2rdm_casscf.so loaded.
Setting geometry variable r to 1.100000

*** tstart() called on wg-dhcp201d206d180.secure.wireless.fsu.
*** at Mon May  9 11:54:55 2016


         ---------------------------------------------------------
                                   SCF
            by Justin Turney, Rob Parrish, and Andy Simmonett
                              RHF Reference
                        1 Threads,    256 MiB Core
         ---------------------------------------------------------

  ==> Geometry <==

    Molecular point group: d2h
    Full point group: D_inf_h

    Geometry (in Angstrom), charge = 0, multiplicity = 1:

       Center              X                  Y                   Z               Mass       
    ------------   -----------------  -----------------  -----------------  -----------------
           N          0.000000000000     0.000000000000    -0.550000000000    14.003074004780
           N          0.000000000000     0.000000000000     0.550000000000    14.003074004780

  Running in d2h symmetry.

  Rotational constants: A = ************  B =      1.98984  C =      1.98984 [cm^-1]
  Rotational constants: A = ************  B =  59653.84444  C =  59653.84444 [MHz]
  Nuclear repulsion =   23.572439291736362

  Charge       = 0
  Multiplicity = 1
  Electrons    = 14
  Nalpha       = 7
  Nbeta        = 7

  ==> Algorithm <==

  SCF Algorithm Type is PK.
  DIIS enabled.
  MOM disabled.
  Fractional occupation disabled.
  Guess Type is CORE.
  Energy threshold   = 1.00e-08
  Density threshold  = 1.00e-10
  Integral threshold = 0.00e+00

  ==> Primary Basis <==

  Basis Set: CC-PVDZ
    Number of shells: 12
    Number of basis function: 28
    Number of Cartesian functions: 30
    Spherical Harmonics?: true
    Max angular momentum: 2

  ==> Pre-Iterations <==

   -------------------------------------------------------
    Irrep   Nso     Nmo     Nalpha   Nbeta   Ndocc  Nsocc
   -------------------------------------------------------
     Ag         7       7       0       0       0       0
     B1g        1       1       0       0       0       0
     B2g        3       3       0       0       0       0
     B3g        3       3       0       0       0       0
     Au         1       1       0       0       0       0
     B1u        7       7       0       0       0       0
     B2u        3       3       0       0       0       0
     B3u        3       3       0       0       0       0
   -------------------------------------------------------
    Total      28      28       7       7       7       0
   -------------------------------------------------------

  ==> Integral Setup <==

	Batch   1 pq = [       0,      82] index = [             0,3403]
  ==> DiskJK: Disk-Based J/K Matrices <==

    J tasked:                  Yes
    K tasked:                  Yes
    wK tasked:                  No
    Memory (MB):               183
    Schwarz Cutoff:          1E-12

  Minimum eigenvalue in the overlap matrix is 6.1906036234E-03.
  Using Symmetric Orthogonalization.
  SCF Guess: Core (One-Electron) Hamiltonian.

  ==> Iterations <==

                        Total Energy        Delta E     RMS |[F,P]|

    Occupation by irrep:
             Ag   B1g   B2g   B3g    Au   B1u   B2u   B3u 
    DOCC [     3,    0,    0,    0,    0,    2,    1,    1 ]

   @RHF iter   1:   -99.92451059046813   -9.99245e+01   2.54409e-01 
   @RHF iter   2:  -106.57820116901642   -6.65369e+00   1.86593e-01 DIIS
   @RHF iter   3:  -108.86479913107648   -2.28660e+00   3.60266e-02 DIIS
   @RHF iter   4:  -108.95061571228537   -8.58166e-02   5.37124e-03 DIIS
   @RHF iter   5:  -108.95370946577707   -3.09375e-03   9.43948e-04 DIIS
   @RHF iter   6:  -108.95379548518754   -8.60194e-05   8.59846e-05 DIIS
   @RHF iter   7:  -108.95379622788020   -7.42693e-07   1.25229e-05 DIIS
   @RHF iter   8:  -108.95379623997205   -1.20918e-08   1.54430e-06 DIIS
   @RHF iter   9:  -108.95379624015673   -1.84684e-10   1.00777e-07 DIIS
   @RHF iter  10:  -108.95379624015759   -8.52651e-13   8.46540e-09 DIIS
   @RHF iter  11:  -108.95379624015764   -5.68434e-14   7.64926e-10 DIIS
   @RHF iter  12:  -108.95379624015762    2.84217e-14   6.51579e-11 DIIS

  ==> Post-Iterations <==

    Orbital Energies (a.u.)
    -----------------------

    Doubly Occupied:                                                      

       1Ag   -15.687167     1B1u  -15.683810     2Ag    -1.469497  
       2B1u   -0.774851     3Ag    -0.626026     1B2u   -0.607175  
       1B3u   -0.607175  

    Virtual:                                                              

       1B3g    0.174428     1B2g    0.174428     3B1u    0.593893  
       4Ag     0.820946     2B2u    0.872872     2B3u    0.872872  
       5Ag     0.991969     2B3g    1.050510     2B2g    1.050510  
       4B1u    1.140849     5B1u    1.640840     1B1g    1.758149  
       6Ag     1.758149     3B3u    1.879691     3B2u    1.879691  
       1Au     2.297394     6B1u    2.297394     7Ag     2.871857  
       3B2g    2.993863     3B3g    2.993863     7B1u    3.278667  

    Final Occupation by Irrep:
             Ag   B1g   B2g   B3g    Au   B1u   B2u   B3u 
    DOCC [     3,    0,    0,    0,    0,    2,    1,    1 ]

  Energy converged.

  @RHF Final Energy:  -108.95379624015762

   => Energetics <=

    Nuclear Repulsion Energy =             23.5724392917363623
    One-Electron Energy =                -194.1410686710959510
    Two-Electron Energy =                  61.6148331392019841
    DFT Exchange-Correlation Energy =       0.0000000000000000
    Empirical Dispersion Energy =           0.0000000000000000
    PCM Polarization Energy =               0.0000000000000000
    EFP Energy =                            0.0000000000000000
    Total Energy =                       -108.9537962401576010


  Saving occupied orbitals to File 180.

*** tstop() called on wg-dhcp201d206d180.secure.wireless.fsu. at Mon May  9 11:54:55 2016
Module time:
	user time   =       0.14 seconds =       0.00 minutes
	system time =       0.01 seconds =       0.00 minutes
	total time  =          0 seconds =       0.00 minutes
Total time:
	user time   =       0.14 seconds =       0.00 minutes
	system time =       0.01 seconds =       0.00 minutes
	total time  =          0 seconds =       0.00 minutes


Properties will be evaluated at   0.000000,   0.000000,   0.000000 Bohr

Properties computed using the SCF density matrix

  Nuclear Dipole Moment: (a.u.)
     X:     0.0000      Y:     0.0000      Z:     0.0000

  Electronic Dipole Moment: (a.u.)
     X:     0.0000      Y:     0.0000      Z:     0.0000

  Dipole Moment: (a.u.)
     X:     0.0000      Y:     0.0000      Z:     0.0000     Total:     0.0000

  Dipole Moment: (Debye)
     X:     0.0000      Y:     0.0000      Z:     0.0000     Total:     0.0000


Reading options from the V2RDM_CASSCF block
Calling plugin v2rdm_casscf.so.



*** tstart() called on wg-dhcp201d206d180.secure.wireless.fsu.
*** at Mon May  9 11:54:55 2016



        ****************************************************
        *                                                  *
        *    v2RDM-CASSCF                                  *
        *                                                  *
        *    A variational 2-RDM-driven approach to the    *
        *    active space self-consistent field method     *
        *                                                  *
        ****************************************************


        The following papers should be cited when using v2RDM-CASSCF:

        J. Fosso-Tande, D. R. Nascimento, and A. E. DePrince III,
        Mol. Phys. 114, 423-430 (2015).

            URL: http://dx.doi.org/10.1080/00268976.2015.1078008

        J. Fosso-Tande, T.-S. Nguyen, G. Gidofalvi, and
        A. E. DePrince III, J. Chem. Theory Comput. accepted (2016).

            URL: http://dx.doi.org/10.1021/acs.jctc.6b00190



  ==> Convergence parameters <==

        r_convergence:                      1.000e-04
        e_convergence:                      5.000e-04
        cg_convergence:                     1.000e-05
        maxiter:                                20000
        cg_maxiter:                             10000

  ==> Active space details <==

        Number of frozen core orbitals:             0
        Number of restricted occupied orbitals:     4
        Number of active occupied orbitals:         3
        Number of active virtual orbitals:          3
        Number of restricted virtual orbitals:     18
        Number of frozen virtual orbitals:          0

        Irrep:             Ag, B1g, B2g, B3g,  Au, B1u, B2u, B3u 
 
        frozen_docc     [   0,   0,   0,   0,   0,   0,   0,   0 ]
        restricted_docc [   2,   0,   0,   0,   0,   2,   0,   0 ]
        active          [   1,   0,   1,   1,   0,   1,   1,   1 ]
        restricted_uocc [   4,   1,   2,   2,   1,   4,   2,   2 ]
        frozen_uocc     [   0,   0,   0,   0,   0,   0,   0,   0 ]

  ==> Orbital optimization parameters <==

        1-step algorithm:                       1
        g_convergence:                  1.000e-04
        e_convergence:                  1.000e-08
        maximum iterations:                    20
        frequency:                            500
        active-active rotations:                0
        exact diagonal Hessian:                 0
        number of DIIS vectors:                 0
        print iteration info:                   0

  ==> Memory requirements <==

        D2:                          0.00 mb
        Q2:                          0.00 mb
        G2:                          0.01 mb
        T2:                          0.28 mb

        Total number of variables:          38844
        Total number of constraints:        38731
        Total memory requirements:        7.15 mb

    ==> Transform two-electron integrals <==

	Presorting SO-basis two-electron integrals.
	Sorting File: SO Ints (nn|nn) nbuckets = 1
	Transforming the one-electron integrals and constructing Fock matrices
	Starting first half-transformation.
	Sorting half-transformed integrals.
	First half integral transformation complete.
	Starting second half-transformation.
	Two-electron integral transformation complete.

        Time for integral transformation:     0.02 s


        Read integrals......done.


    reference energy:        -108.953796240158
    frozen core energy:      -121.129833723337
    initial 2-RDM energy:    -100.714436764797

      oiter iiter        E(p)        E(d)      E gap)      mu     eps(p)     eps(d)
          0   112 -107.033504  900.077180 1007.110684   1.000   80.70525  178.18202
          1    84  -99.823430 -1440.603453 1340.780023   1.000   15.66726   81.97857
          2    87 -115.069676 -422.975256  307.905580   1.000   21.42190   17.61692
          3    67 -107.725748 -373.251215  265.525466   1.000   14.00587    7.01165
          4    70 -110.020562 -283.891290  173.870727   1.000   12.36975    5.69227
          5    76 -106.990008 -223.197402  116.207394   1.000    8.12810    4.79535
          6    76 -107.708852 -176.681712   68.972860   1.000    6.48077    4.42410
          7    75 -107.058864 -144.838154   37.779290   1.000    5.07515    3.87537
          8    79 -107.353840 -121.806388   14.452548   1.000    3.74600    3.65612
          9    61 -107.135475 -112.027490    4.892015   1.000    2.73800    3.30127
         10    75 -107.295283 -109.856291    2.561008   1.000    1.97954    2.70324
         11    61 -107.252444 -106.762542    0.489902   1.000    1.25542    2.22051
         12    75 -107.318765 -108.726805    1.408040   1.000    0.78478    1.64177
         13    75 -107.308577 -108.287140    0.978563   1.000    0.51927    1.07590
         14    75 -107.355442 -108.660667    1.305225   1.000    0.39316    0.65166
         15    75 -107.362449 -108.299198    0.936749   1.000    0.31745    0.41333
         16    75 -107.394994 -108.315802    0.920808   1.000    0.28377    0.28289
         17    74 -107.411904 -108.136626    0.724722   1.000    0.26153    0.21665
         18    75 -107.437206 -108.088073    0.650866   1.000    0.25136    0.18576
         19    75 -107.457556 -107.958433    0.500877   1.000    0.24369    0.17079
         20    75 -107.480610 -107.881192    0.400582   1.000    0.23415    0.17992
         21    75 -107.501886 -107.792859    0.290973   1.000    0.22956    0.16052
         22    70 -107.524782 -107.699067    0.174284   1.000    0.21152    0.17942
         23    70 -107.546783 -107.641197    0.094414   1.000    0.19116    0.18477
         24    70 -107.569808 -107.584614    0.014806   1.000    0.16485    0.17002
         25    70 -107.592015 -107.549260    0.042754   1.000    0.15700    0.15647
         26    70 -107.614750 -107.517077    0.097673   1.000    0.15081    0.14785
         27    69 -107.637546 -107.471988    0.165558   1.000    0.12963    0.16913
         28    54 -107.660326 -107.466067    0.194258   1.000    0.11659    0.16209
         29    70 -107.682983 -107.438197    0.244786   1.000    0.10902    0.14817
         30    54 -107.705441 -107.436301    0.269140   1.000    0.10260    0.14339
         31    64 -107.727558 -107.411074    0.316485   1.000    0.09714    0.14142
         32    54 -107.749998 -107.408022    0.341976   1.000    0.09201    0.14041
         33    66 -107.771989 -107.388036    0.383952   1.000    0.08738    0.13971
         34    48 -107.794512 -107.377674    0.416838   1.000    0.08290    0.13901
         35    64 -107.815678 -107.385472    0.430206   1.000    0.07882    0.13830
         36    48 -107.838159 -107.357158    0.481000   1.000    0.07479    0.13750
         37    64 -107.859002 -107.376330    0.482672   1.000    0.07110    0.13664
         38    47 -107.880280 -107.344925    0.535355   1.000    0.07169    0.13542
         39    55 -107.898239 -107.373847    0.524392   1.000    0.10497    0.13333
         40    41 -107.916916 -107.366723    0.550193   1.000    0.14837    0.12964
         41    49 -107.934598 -107.384731    0.549867   1.000    0.18845    0.12524
         42    56 -107.949747 -107.448808    0.500938   1.000    0.22095    0.12078
         43    47 -107.968054 -107.422119    0.545935   1.000    0.24177    0.11675
         44    56 -107.981753 -107.516929    0.464823   1.000    0.25160    0.11387
         45    49 -107.998416 -107.487159    0.511257   1.000    0.24853    0.11251
         46    62 -108.011229 -107.584062    0.427167   1.000    0.23515    0.11260
         47    41 -108.025069 -107.580059    0.445010   1.000    0.20977    0.11382
         48    62 -108.037659 -107.619867    0.417792   1.000    0.17568    0.11568
         49    41 -108.049479 -107.658837    0.390642   1.000    0.13295    0.11747
         50    56 -108.060383 -107.680158    0.380226   1.000    0.08636    0.11878
         51    41 -108.070797 -107.710899    0.359898   1.000    0.04250    0.11903
         52    48 -108.080258 -107.721256    0.359001   1.000    0.04276    0.11788
         53    56 -108.089575 -107.738688    0.350887   1.000    0.08473    0.11551
         54    56 -108.098409 -107.732478    0.365931   1.000    0.12868    0.11224
         55    41 -108.107518 -107.734097    0.373421   1.000    0.16648    0.10851
         56    56 -108.116063 -107.710963    0.405099   1.000    0.19720    0.10479
         57    41 -108.125125 -107.700716    0.424409   1.000    0.21668    0.10161
         58    62 -108.133213 -107.673260    0.459952   1.000    0.22753    0.09941
         59    39 -108.141588 -107.649359    0.492229   1.000    0.22817    0.09842
         60    62 -108.149439 -107.630199    0.519240   1.000    0.22339    0.09850
         61    33 -108.157967 -107.610097    0.547870   1.000    0.21097    0.09931
         62    57 -108.166408 -107.606345    0.560063   1.000    0.19752    0.10042
         63    40 -108.174957 -107.605803    0.569154   1.000    0.18204    0.10126
         64    56 -108.181570 -107.617864    0.563706   1.000    0.17316    0.10128
         65    40 -108.187459 -107.649413    0.538046   1.000    0.16953    0.10030
         66    50 -108.193365 -107.679532    0.513833   1.000    0.16970    0.09878
         67    43 -108.199385 -107.753558    0.445827   1.000    0.16770    0.09737
         68    56 -108.205264 -107.763823    0.441441   1.000    0.16376    0.09624
         69    41 -108.211948 -107.803301    0.408648   1.000    0.15607    0.09503
         70    41 -108.218246 -107.809537    0.408709   1.000    0.14824    0.09351
         71    43 -108.225496 -107.805879    0.419617   1.000    0.14233    0.09173
         72    56 -108.232226 -107.797361    0.434865   1.000    0.14006    0.08999
         73    35 -108.239891 -107.771212    0.468679   1.000    0.14068    0.08855
         74    41 -108.247650 -107.770091    0.477559   1.000    0.14257    0.08785
         75    35 -108.255718 -107.764881    0.490838   1.000    0.14153    0.08771
         76    56 -108.263980 -107.798325    0.465655   1.000    0.13626    0.08675
         77    34 -108.271941 -107.804724    0.467217   1.000    0.12626    0.08701
         78    41 -108.279946 -107.844544    0.435402   1.000    0.11071    0.08698
         79    56 -108.288291 -107.840285    0.448006   1.000    0.09372    0.08717
         80    41 -108.295797 -107.871613    0.424184   1.000    0.07735    0.08714
         81    40 -108.304024 -107.855264    0.448760   1.000    0.06576    0.08675
         82    49 -108.311385 -107.865835    0.445550   1.000    0.06264    0.08596
         83    41 -108.319274 -107.854787    0.464487   1.000    0.06669    0.08491
         84    43 -108.326216 -107.844338    0.481878   1.000    0.07407    0.08376
         85    41 -108.333831 -107.826966    0.506865   1.000    0.08044    0.08275
         86    41 -108.340139 -107.817103    0.523036   1.000    0.08445    0.08196
         87    41 -108.346749 -107.800204    0.546546   1.000    0.08667    0.08130
         88    43 -108.352049 -107.803321    0.548728   1.000    0.08765    0.08055
         89    56 -108.358356 -107.800860    0.557496   1.000    0.08717    0.07994
         90    34 -108.363814 -107.810042    0.553772   1.000    0.08417    0.07956
         91    54 -108.369577 -107.823585    0.545993   1.000    0.08047    0.07946
         92    34 -108.375178 -107.833124    0.542054   1.000    0.07582    0.07954
         93    56 -108.380701 -107.848776    0.531925   1.000    0.07340    0.07961
         94    35 -108.385298 -107.861952    0.523347   1.000    0.07463    0.07928
         95    43 -108.389986 -107.877064    0.512922   1.000    0.08111    0.07814
         96    56 -108.394264 -107.896595    0.497669   1.000    0.08819    0.07673
         97    41 -108.399063 -107.916144    0.482919   1.000    0.09107    0.07562
         98    56 -108.403436 -107.924648    0.478788   1.000    0.08889    0.07518
         99    41 -108.408542 -107.937081    0.471461   1.000    0.08155    0.07539
        100    43 -108.413301 -107.931819    0.481482   1.000    0.07113    0.07594
        101    56 -108.418257 -107.935440    0.482818   1.000    0.05978    0.07645
        102    42 -108.423154 -107.922177    0.500978   1.000    0.05030    0.07658
        103    42 -108.427938 -107.914502    0.513436   1.000    0.04484    0.07627
        104    41 -108.433033 -107.895505    0.537528   1.000    0.04411    0.07558
        105    42 -108.437879 -107.888499    0.549380   1.000    0.04547    0.07477
        106    56 -108.443188 -107.871067    0.572121   1.000    0.04650    0.07406
        107    41 -108.447895 -107.870389    0.577506   1.000    0.04626    0.07358
        108    56 -108.453472 -107.860368    0.593104   1.000    0.04570    0.07324
        109    41 -108.457903 -107.875770    0.582133   1.000    0.04620    0.07295
        110    43 -108.463494 -107.872210    0.591284   1.000    0.04884    0.07259
        111    56 -108.468653 -107.886384    0.582269   1.000    0.05372    0.07212
        112    43 -108.473314 -107.905332    0.567982   1.000    0.05946    0.07158
        113    56 -108.479424 -107.903850    0.575574   1.000    0.06493    0.07106
        114    43 -108.483409 -107.937921    0.545489   1.000    0.06889    0.07066
        115    42 -108.489668 -107.927755    0.561913   1.000    0.07041    0.06996
        116    62 -108.493349 -107.973106    0.520243   1.000    0.07009    0.06847
        117    50 -108.498933 -107.987768    0.511165   1.000    0.06499    0.06690
        118    67 -108.502108 -108.044426    0.457682   1.000    0.06113    0.06666
        119    49 -108.506875 -108.067051    0.439825   1.000    0.05782    0.06577
        120    61 -108.509334 -108.153858    0.355476   1.000    0.05252    0.06356
        121    61 -108.510950 -108.231640    0.279311   1.000    0.04978    0.06227
        122    47 -108.512034 -108.266519    0.245514   1.000    0.05165    0.06126
        123    56 -108.516211 -108.265197    0.251014   1.000    0.05707    0.06000
        124    56 -108.515895 -108.250723    0.265172   1.000    0.06263    0.05862
        125    62 -108.519050 -108.227031    0.292019   1.000    0.06776    0.05732
        126    50 -108.520525 -108.228498    0.292026   1.000    0.06961    0.05543
        127    62 -108.523509 -108.203305    0.320204   1.000    0.06832    0.05440
        128    51 -108.526214 -108.196872    0.329342   1.000    0.06233    0.05407
        129    56 -108.530047 -108.178215    0.351832   1.000    0.05332    0.05491
        130    49 -108.533385 -108.177964    0.355422   1.000    0.04245    0.05488
        131    47 -108.537301 -108.172776    0.364525   1.000    0.03111    0.05499
        132    49 -108.540873 -108.161440    0.379433   1.000    0.02242    0.05499
        133    56 -108.544459 -108.155751    0.388707   1.000    0.02071    0.05469
        134    61 -108.547959 -108.147530    0.400428   1.000    0.02569    0.05402
        135    56 -108.551384 -108.162298    0.389086   1.000    0.03164    0.05322
        136    56 -108.552454 -108.180398    0.372056   1.000    0.04073    0.05231
        137    56 -108.553217 -108.206817    0.346400   1.000    0.05723    0.05088
        138    51 -108.553839 -108.231519    0.322320   1.000    0.07255    0.04912
        139    56 -108.554937 -108.267114    0.287823   1.000    0.08365    0.04738
        140    67 -108.555956 -108.286721    0.269236   1.000    0.08904    0.04607
        141    51 -108.556876 -108.310509    0.246368   1.000    0.08583    0.04551
        142    68 -108.556965 -108.330813    0.226153   1.000    0.07882    0.04580
        143    43 -108.560105 -108.353733    0.206372   1.000    0.06551    0.04613
        144    62 -108.561492 -108.359812    0.201680   1.000    0.04847    0.04673
        145    43 -108.563662 -108.380616    0.183047   1.000    0.03076    0.04725
        146    61 -108.567372 -108.371205    0.196167   1.000    0.01629    0.04728
        147    55 -108.570378 -108.377606    0.192771   1.000    0.01878    0.04716
        148    56 -108.574040 -108.364129    0.209911   1.000    0.03236    0.04669
        149    50 -108.577213 -108.351854    0.225359   1.000    0.04588    0.04631
        150    56 -108.580524 -108.349374    0.231150   1.000    0.05739    0.04500
        151    53 -108.583408 -108.319506    0.263902   1.000    0.06524    0.04406
        152    50 -108.586148 -108.310201    0.275947   1.000    0.06965    0.04326
        153    62 -108.588756 -108.296425    0.292331   1.000    0.07099    0.04253
        154    51 -108.590463 -108.293249    0.297213   1.000    0.06872    0.04197
        155    66 -108.591928 -108.288686    0.303242   1.000    0.06420    0.04175
        156    34 -108.593087 -108.295271    0.297816   1.000    0.05706    0.04192
        157    62 -108.593952 -108.297279    0.296673   1.000    0.04843    0.04251
        158    34 -108.594370 -108.308699    0.285671   1.000    0.03810    0.04328
        159    56 -108.594629 -108.312910    0.281718   1.000    0.02716    0.04399
        160    49 -108.593659 -108.310128    0.283530   1.000    0.01400    0.04449
        161    56 -108.595508 -108.321538    0.273971   1.000    0.01010    0.04440
        162    56 -108.596005 -108.316584    0.279421   1.000    0.01229    0.04410
        163    62 -108.596365 -108.317781    0.278584   1.000    0.01942    0.04353
        164    50 -108.597157 -108.314088    0.283069   1.000    0.02637    0.04285
        165    67 -108.597135 -108.320816    0.276319   1.000    0.03205    0.04216
        166    49 -108.598520 -108.318576    0.279945   1.000    0.03617    0.04160
        167    56 -108.599954 -108.326817    0.273137   1.000    0.03866    0.04128
        168    51 -108.601815 -108.322466    0.279349   1.000    0.03895    0.04123
        169    51 -108.603685 -108.336438    0.267247   1.000    0.03732    0.04138
        170    50 -108.605978 -108.333201    0.272776   1.000    0.03360    0.04168
        171    51 -108.608240 -108.345481    0.262759   1.000    0.02841    0.04198
        172    43 -108.610718 -108.343930    0.266788   1.000    0.02196    0.04223
        173    55 -108.613338 -108.349377    0.263961   1.000    0.01539    0.04233
        174    43 -108.615807 -108.347834    0.267973   1.000    0.01094    0.04226
        175    61 -108.618336 -108.347294    0.271042   1.000    0.01254    0.04206
        176    51 -108.620711 -108.342676    0.278035   1.000    0.01814    0.04175
        177    62 -108.622927 -108.338665    0.284262   1.000    0.02448    0.04142
        178    43 -108.625148 -108.329663    0.295486   1.000    0.02982    0.04115
        179    62 -108.626982 -108.324535    0.302447   1.000    0.03410    0.04096
        180    43 -108.628863 -108.316007    0.312856   1.000    0.03638    0.04090
        181    50 -108.630035 -108.313722    0.316313   1.000    0.03703    0.04093
        182    56 -108.631717 -108.305283    0.326435   1.000    0.03622    0.04104
        183    43 -108.633282 -108.298346    0.334936   1.000    0.03359    0.04120
        184    43 -108.634419 -108.306514    0.327905   1.000    0.02952    0.04137
        185    56 -108.635549 -108.301451    0.334097   1.000    0.02470    0.04152
        186    41 -108.637188 -108.300623    0.336565   1.000    0.01909    0.04162
        187    41 -108.638238 -108.305300    0.332938   1.000    0.01357    0.04163
        188    56 -108.638846 -108.303512    0.335335   1.000    0.00878    0.04157
        189    56 -108.641050 -108.308744    0.332306   1.000    0.00816    0.04139
        190    71 -108.642475 -108.310928    0.331546   1.000    0.01040    0.04120
        191    51 -108.643687 -108.313190    0.330497   1.000    0.01230    0.04100
        192    62 -108.644694 -108.318321    0.326373   1.000    0.01495    0.04080
        193    56 -108.646548 -108.320667    0.325881   1.000    0.01651    0.04062
        194    56 -108.647572 -108.324656    0.322916   1.000    0.01799    0.04045
        195    49 -108.648720 -108.326985    0.321735   1.000    0.02110    0.04024
        196    51 -108.649903 -108.337314    0.312588   1.000    0.02413    0.03996
        197    51 -108.651409 -108.343440    0.307969   1.000    0.02550    0.03985
        198    51 -108.653113 -108.356110    0.297003   1.000    0.02497    0.03977
        199    56 -108.654881 -108.365571    0.289310   1.000    0.02298    0.03987
        200    41 -108.656705 -108.371485    0.285220   1.000    0.02003    0.04004
        201    62 -108.658977 -108.373674    0.285303   1.000    0.01762    0.04019
        202    42 -108.661030 -108.374771    0.286259   1.000    0.01668    0.04027
        203    61 -108.663103 -108.370880    0.292224   1.000    0.01804    0.04022
        204    43 -108.665299 -108.364416    0.300883   1.000    0.02035    0.04006
        205    51 -108.667017 -108.357739    0.309279   1.000    0.02266    0.03982
        206    56 -108.668930 -108.348182    0.320747   1.000    0.02423    0.03953
        207    43 -108.670181 -108.339001    0.331180   1.000    0.02130    0.03924
        208    47 -108.669455 -108.338239    0.331216   1.000    0.01821    0.03908
        209    42 -108.672338 -108.337127    0.335211   1.000    0.01594    0.03882
        210    49 -108.672818 -108.337048    0.335770   1.000    0.01367    0.03871
        211    49 -108.674611 -108.339938    0.334674   1.000    0.01112    0.03870
        212    49 -108.675478 -108.344239    0.331239   1.000    0.00893    0.03876
        213    51 -108.676865 -108.348834    0.328031   1.000    0.00768    0.03884
        214    55 -108.677948 -108.353352    0.324596   1.000    0.00801    0.03893
        215    56 -108.679307 -108.356283    0.323024   1.000    0.00926    0.03900
        216    50 -108.680560 -108.358779    0.321781   1.000    0.01062    0.03905
        217    56 -108.682108 -108.361427    0.320681   1.000    0.01156    0.03909
        218    50 -108.683529 -108.359988    0.323541   1.000    0.01177    0.03913
        219    51 -108.685230 -108.361456    0.323774   1.000    0.01129    0.03917
        220    50 -108.686914 -108.359567    0.327348   1.000    0.01011    0.03921
        221    51 -108.688678 -108.359065    0.329613   1.000    0.00855    0.03924
        222    50 -108.690479 -108.358014    0.332465   1.000    0.00703    0.03925
        223    51 -108.692289 -108.357970    0.334319   1.000    0.00624    0.03922
        224    56 -108.694098 -108.358204    0.335894   1.000    0.00668    0.03916
        225    62 -108.695818 -108.359867    0.335952   1.000    0.00847    0.03896
        226    43 -108.697443 -108.364139    0.333304   1.000    0.01067    0.03865
        227    67 -108.699016 -108.369046    0.329970   1.000    0.01283    0.03832
        228    34 -108.700397 -108.374500    0.325898   1.000    0.01447    0.03803
        229    56 -108.701793 -108.378186    0.323607   1.000    0.01550    0.03783
        230    41 -108.703044 -108.377478    0.325566   1.000    0.01574    0.03772
        231    56 -108.704306 -108.382108    0.322199   1.000    0.01517    0.03772
        232    34 -108.705497 -108.378063    0.327434   1.000    0.01385    0.03777
        233    56 -108.706647 -108.378108    0.328539   1.000    0.01195    0.03788
        234    41 -108.707880 -108.371754    0.336126   1.000    0.00991    0.03799
        235    43 -108.709036 -108.373041    0.335995   1.000    0.00805    0.03805
        236    41 -108.710223 -108.365644    0.344579   1.000    0.00704    0.03809
        237    49 -108.711397 -108.365578    0.345819   1.000    0.00713    0.03810
        238    61 -108.712653 -108.360552    0.352100   1.000    0.00809    0.03810
        239    49 -108.713913 -108.359981    0.353932   1.000    0.00923    0.03810
        240    56 -108.715226 -108.359304    0.355921   1.000    0.01020    0.03810
        241    56 -108.716632 -108.359339    0.357293   1.000    0.01069    0.03810
        242    56 -108.717994 -108.360212    0.357783   1.000    0.01065    0.03810
        243    56 -108.719485 -108.363458    0.356027   1.000    0.01013    0.03809
        244    50 -108.720942 -108.364881    0.356061   1.000    0.00920    0.03806
        245    62 -108.722406 -108.368895    0.353511   1.000    0.00828    0.03793
        246    48 -108.723944 -108.374315    0.349629   1.000    0.00784    0.03759
        247    55 -108.725263 -108.384603    0.340659   1.000    0.00811    0.03714
        248    56 -108.726637 -108.391227    0.335410   1.000    0.00893    0.03673
        249    56 -108.727886 -108.401794    0.326093   1.000    0.01018    0.03641
        250    51 -108.729129 -108.406396    0.322733   1.000    0.01146    0.03625
        251    51 -108.730262 -108.409868    0.320393   1.000    0.01238    0.03621
        252    49 -108.731513 -108.412186    0.319328   1.000    0.01268    0.03626
        253    51 -108.732577 -108.411078    0.321499   1.000    0.01229    0.03636
        254    56 -108.733875 -108.404205    0.329671   1.000    0.01128    0.03647
        255    51 -108.735049 -108.401415    0.333633   1.000    0.00985    0.03658
        256    56 -108.736271 -108.395311    0.340960   1.000    0.00853    0.03664
        257    50 -108.737527 -108.390369    0.347158   1.000    0.00792    0.03667
        258    51 -108.738774 -108.387199    0.351575   1.000    0.00844    0.03666
        259    51 -108.740016 -108.385812    0.354204   1.000    0.00973    0.03663
        260    65 -108.741275 -108.386934    0.354340   1.000    0.01123    0.03659
        261    43 -108.742580 -108.388741    0.353839   1.000    0.01232    0.03657
        262    62 -108.743785 -108.395064    0.348720   1.000    0.01289    0.03656
        263    43 -108.745216 -108.395743    0.349473   1.000    0.01266    0.03656
        264    62 -108.746432 -108.404528    0.341904   1.000    0.01188    0.03656
        265    43 -108.747983 -108.403017    0.344966   1.000    0.01044    0.03654
        266    51 -108.749310 -108.410011    0.339299   1.000    0.00881    0.03650
        267    61 -108.750871 -108.407028    0.343843   1.000    0.00747    0.03645
        268    50 -108.752311 -108.409745    0.342566   1.000    0.00688    0.03638
        269    51 -108.753851 -108.406021    0.347831   1.000    0.00735    0.03631
        270    51 -108.755294 -108.405566    0.349728   1.000    0.00848    0.03626
        271    61 -108.756809 -108.402563    0.354247   1.000    0.00986    0.03622
        272    43 -108.758175 -108.401568    0.356607   1.000    0.01094    0.03627
        273    62 -108.759604 -108.399356    0.360248   1.000    0.01179    0.03619
        274    43 -108.760807 -108.400272    0.360535   1.000    0.01202    0.03618
        275    62 -108.762059 -108.396874    0.365185   1.000    0.01188    0.03618
        276    43 -108.762942 -108.400223    0.362719   1.000    0.01128    0.03618
        277    56 -108.764133 -108.395579    0.368554   1.000    0.01057    0.03619
        278    50 -108.765000 -108.399465    0.365535   1.000    0.00971    0.03619
        279    67 -108.766120 -108.398637    0.367483   1.000    0.00896    0.03618
        280    47 -108.767124 -108.399268    0.367856   1.000    0.00829    0.03616
        281    56 -108.768333 -108.400326    0.368007   1.000    0.00782    0.03614
        282    56 -108.769470 -108.399743    0.369727   1.000    0.00766    0.03611
        283    51 -108.770722 -108.400895    0.369827   1.000    0.00772    0.03607
        284    51 -108.772020 -108.399884    0.372135   1.000    0.00800    0.03604
        285    51 -108.773386 -108.398380    0.375006   1.000    0.00841    0.03600
        286    51 -108.774802 -108.397006    0.377796   1.000    0.00892    0.03597
        287    61 -108.776308 -108.394784    0.381524   1.000    0.00945    0.03596
        288    43 -108.777680 -108.394413    0.383267   1.000    0.01000    0.03593
        289    51 -108.779182 -108.392844    0.386338   1.000    0.01055    0.03591
        290    61 -108.780633 -108.390367    0.390265   1.000    0.01102    0.03590
        291    34 -108.781449 -108.389140    0.392309   1.000    0.00721    0.03591
        292    47 -108.782460 -108.389908    0.392552   1.000    0.00664    0.03591
        293    62 -108.784006 -108.388661    0.395344   1.000    0.00652    0.03592
        294    43 -108.785282 -108.389448    0.395833   1.000    0.00620    0.03594
        295    51 -108.786596 -108.389418    0.397178   1.000    0.00593    0.03597
        296    56 -108.787881 -108.389945    0.397935   1.000    0.00552    0.03599
        297    51 -108.789200 -108.389129    0.400071   1.000    0.00503    0.03602
        298    56 -108.790435 -108.390633    0.399801   1.000    0.00447    0.03604
        299    50 -108.791696 -108.390173    0.401523   1.000    0.00392    0.03605
        300    50 -108.792909 -108.391592    0.401316   1.000    0.00347    0.03606
        301    56 -108.794125 -108.392251    0.401874   1.000    0.00322    0.03605
        302    56 -108.795343 -108.392428    0.402915   1.000    0.00325    0.03602
        303    56 -108.796571 -108.393096    0.403476   1.000    0.00354    0.03598
        304    50 -108.797824 -108.393629    0.404195   1.000    0.00397    0.03592
        305    56 -108.799069 -108.395256    0.403813   1.000    0.00443    0.03585
        306    43 -108.800367 -108.394724    0.405643   1.000    0.00487    0.03578
        307    56 -108.801652 -108.396597    0.405055   1.000    0.00524    0.03570
        308    43 -108.802995 -108.396119    0.406876   1.000    0.00552    0.03561
        309    56 -108.804339 -108.400536    0.403803   1.000    0.00567    0.03551
        310    56 -108.805717 -108.402249    0.403469   1.000    0.00577    0.03542
        311    55 -108.807157 -108.407824    0.399333   1.000    0.00613    0.03535
        312    56 -108.808565 -108.410049    0.398515   1.000    0.00690    0.03533
        313    56 -108.809990 -108.413703    0.396287   1.000    0.00790    0.03532
        314    56 -108.811373 -108.414041    0.397332   1.000    0.00875    0.03534
        315    56 -108.812718 -108.415944    0.396774   1.000    0.00935    0.03538
        316    51 -108.813978 -108.416437    0.397540   1.000    0.00958    0.03540
        317    56 -108.815148 -108.416438    0.398709   1.000    0.00939    0.03541
        318    56 -108.816296 -108.415819    0.400478   1.000    0.00884    0.03541
        319    51 -108.817333 -108.415828    0.401506   1.000    0.00800    0.03539
        320    61 -108.818177 -108.415571    0.402605   1.000    0.00648    0.03536
        321    43 -108.819265 -108.417559    0.401706   1.000    0.00608    0.03530
        322    61 -108.820385 -108.417816    0.402570   1.000    0.00579    0.03524
        323    51 -108.821479 -108.420183    0.401296   1.000    0.00564    0.03517
        324    66 -108.822625 -108.420113    0.402512   1.000    0.00567    0.03511
        325    49 -108.823715 -108.422241    0.401474   1.000    0.00583    0.03505
        326    56 -108.824937 -108.421425    0.403512   1.000    0.00607    0.03500
        327    51 -108.825991 -108.425170    0.400821   1.000    0.00632    0.03496
        328    51 -108.827240 -108.423528    0.403712   1.000    0.00651    0.03494
        329    62 -108.828451 -108.424065    0.404386   1.000    0.00653    0.03493
        330    49 -108.829577 -108.424158    0.405419   1.000    0.00645    0.03493
        331    66 -108.830862 -108.422526    0.408336   1.000    0.00623    0.03495
        332    49 -108.832035 -108.422007    0.410028   1.000    0.00594    0.03498
        333    71 -108.833297 -108.420774    0.412523   1.000    0.00558    0.03501
        334    49 -108.834423 -108.420701    0.413722   1.000    0.00522    0.03504
        335    70 -108.835436 -108.420774    0.414663   1.000    0.00544    0.03507
        336    56 -108.836470 -108.421680    0.414790   1.000    0.00609    0.03509
        337    67 -108.837506 -108.421639    0.415867   1.000    0.00681    0.03511
        338    51 -108.838594 -108.422553    0.416041   1.000    0.00727    0.03512
        339    67 -108.839667 -108.422662    0.417005   1.000    0.00754    0.03512
        340    51 -108.840839 -108.422314    0.418525   1.000    0.00743    0.03512
        341    67 -108.841973 -108.421925    0.420048   1.000    0.00714    0.03511
        342    43 -108.843207 -108.420587    0.422620   1.000    0.00658    0.03510
        343    67 -108.844452 -108.419774    0.424678   1.000    0.00596    0.03508
        344    49 -108.845745 -108.417998    0.427747   1.000    0.00532    0.03506
        345    67 -108.847066 -108.416953    0.430112   1.000    0.00487    0.03504
        346    51 -108.848413 -108.415268    0.433146   1.000    0.00472    0.03501
        347    62 -108.849776 -108.413921    0.435855   1.000    0.00493    0.03498
        348    49 -108.851184 -108.412866    0.438319   1.000    0.00544    0.03495
        349    67 -108.852573 -108.411591    0.440982   1.000    0.00618    0.03492
        350    51 -108.853954 -108.411505    0.442450   1.000    0.00692    0.03490
        351    62 -108.855295 -108.410372    0.444923   1.000    0.00775    0.03488
        352    50 -108.856640 -108.411587    0.445053   1.000    0.00843    0.03486
        353    62 -108.857977 -108.410871    0.447106   1.000    0.00907    0.03486
        354    47 -108.859288 -108.412500    0.446787   1.000    0.00947    0.03485
        355    63 -108.860566 -108.412747    0.447819   1.000    0.00976    0.03485
        356    43 -108.861829 -108.413878    0.447951   1.000    0.00975    0.03486
        357    62 -108.862844 -108.414696    0.448148   1.000    0.00790    0.03486
        358    51 -108.863009 -108.415998    0.447011   1.000    0.00582    0.03489
        359    62 -108.864836 -108.418048    0.446788   1.000    0.00453    0.03487
        360    56 -108.865614 -108.418010    0.447604   1.000    0.00417    0.03486
        361    71 -108.866886 -108.418903    0.447983   1.000    0.00461    0.03484
        362    52 -108.867803 -108.419494    0.448309   1.000    0.00561    0.03481
        363    67 -108.868967 -108.420377    0.448590   1.000    0.00646    0.03478
        364    51 -108.870029 -108.422029    0.447999   1.000    0.00692    0.03476
        365    62 -108.871170 -108.422552    0.448618   1.000    0.00701    0.03475
        366    50 -108.872352 -108.423942    0.448410   1.000    0.00656    0.03480
        367    62 -108.873580 -108.425651    0.447929   1.000    0.00608    0.03475
        368    43 -108.874836 -108.426808    0.448028   1.000    0.00556    0.03475
        369    62 -108.876099 -108.426397    0.449702   1.000    0.00530    0.03475
        370    43 -108.877432 -108.426460    0.450973   1.000    0.00522    0.03474
        371    62 -108.878685 -108.425266    0.453419   1.000    0.00540    0.03473
        372    42 -108.880028 -108.424155    0.455873   1.000    0.00554    0.03472
        373    62 -108.881292 -108.422234    0.459058   1.000    0.00562    0.03471
        374    43 -108.882586 -108.421778    0.460808   1.000    0.00546    0.03470
        375    62 -108.883836 -108.419509    0.464327   1.000    0.00520    0.03470
        376    43 -108.885065 -108.419867    0.465199   1.000    0.00473    0.03470
        377    67 -108.886307 -108.417998    0.468308   1.000    0.00428    0.03471
        378    50 -108.887470 -108.419422    0.468047   1.000    0.00385    0.03472
        379    67 -108.888707 -108.419271    0.469435   1.000    0.00378    0.03471
        380    51 -108.889844 -108.420861    0.468983   1.000    0.00398    0.03470
        381    67 -108.891069 -108.421546    0.469523   1.000    0.00452    0.03465
        382    43 -108.892182 -108.424383    0.467799   1.000    0.00516    0.03456
        383    67 -108.893371 -108.426112    0.467259   1.000    0.00576    0.03446
        384    47 -108.894468 -108.428663    0.465805   1.000    0.00617    0.03436
        385    61 -108.895291 -108.431218    0.464074   1.000    0.00569    0.03428
        386    49 -108.896490 -108.435278    0.461212   1.000    0.00573    0.03421
        387    61 -108.897528 -108.438583    0.458945   1.000    0.00569    0.03417
        388    41 -108.898646 -108.441377    0.457269   1.000    0.00559    0.03414
        389    56 -108.899721 -108.442999    0.456722   1.000    0.00551    0.03410
        390    49 -108.900826 -108.444474    0.456352   1.000    0.00544    0.03406
        391    56 -108.901963 -108.444387    0.457576   1.000    0.00536    0.03401
        392    43 -108.903161 -108.444491    0.458670   1.000    0.00525    0.03397
        393    51 -108.904324 -108.443553    0.460771   1.000    0.00512    0.03393
        394    61 -108.905571 -108.443601    0.461970   1.000    0.00501    0.03390
        395    51 -108.906795 -108.443477    0.463318   1.000    0.00499    0.03387
        396    49 -108.908000 -108.443868    0.464132   1.000    0.00508    0.03382
        397    61 -108.909194 -108.445243    0.463951   1.000    0.00526    0.03377
        398    49 -108.910343 -108.445507    0.464836   1.000    0.00521    0.03372
        399    71 -108.911259 -108.448375    0.462884   1.000    0.00511    0.03368
        400    52 -108.912472 -108.451059    0.461412   1.000    0.00516    0.03363
        401    71 -108.913479 -108.454221    0.459258   1.000    0.00531    0.03357
        402    55 -108.914584 -108.457982    0.456603   1.000    0.00557    0.03350
        403    71 -108.915618 -108.460879    0.454739   1.000    0.00596    0.03343
        404    56 -108.916738 -108.464601    0.452137   1.000    0.00666    0.03336
        405    61 -108.917784 -108.467378    0.450406   1.000    0.00765    0.03324
        406    49 -108.918956 -108.466027    0.452929   1.000    0.00869    0.03313
        407    56 -108.919994 -108.467084    0.452910   1.000    0.00963    0.03306
        408    56 -108.921138 -108.465245    0.455893   1.000    0.01062    0.03296
        409    56 -108.922239 -108.464686    0.457553   1.000    0.01143    0.03290
        410    55 -108.923333 -108.464240    0.459093   1.000    0.01199    0.03284
        411    56 -108.923982 -108.463339    0.460643   1.000    0.01011    0.03281
        412    56 -108.924971 -108.464965    0.460006   1.000    0.00991    0.03277
        413    56 -108.925962 -108.468512    0.457450   1.000    0.00961    0.03275
        414    61 -108.926977 -108.471502    0.455475   1.000    0.00933    0.03273
        415    56 -108.928016 -108.475363    0.452653   1.000    0.00896    0.03272
        416    61 -108.929028 -108.478087    0.450942   1.000    0.00873    0.03271
        417    50 -108.929879 -108.479713    0.450166   1.000    0.00739    0.03271
        418    56 -108.930875 -108.482971    0.447905   1.000    0.00731    0.03269
        419    56 -108.932067 -108.482522    0.449545   1.000    0.00712    0.03269
        420    56 -108.933053 -108.484081    0.448971   1.000    0.00690    0.03269
        421    56 -108.934295 -108.482087    0.452208   1.000    0.00661    0.03268
        422    62 -108.935213 -108.484464    0.450749   1.000    0.00628    0.03267
        423    56 -108.936489 -108.482890    0.453599   1.000    0.00592    0.03264
        424    67 -108.937440 -108.484912    0.452528   1.000    0.00569    0.03261
        425    56 -108.938632 -108.484849    0.453783   1.000    0.00545    0.03257
        426    61 -108.939624 -108.486362    0.453261   1.000    0.00540    0.03250
        427    56 -108.940822 -108.486985    0.453838   1.000    0.00550    0.03237
        428    67 -108.941826 -108.491129    0.450696   1.000    0.00589    0.03219
        429    67 -108.942985 -108.494130    0.448855   1.000    0.00641    0.03196
        430    67 -108.943909 -108.500709    0.443200   1.000    0.00684    0.03171
        431    71 -108.944690 -108.505999    0.438692   1.000    0.00657    0.03152
        432    75 -108.945760 -108.512933    0.432827   1.000    0.00640    0.03144
        433    71 -108.946607 -108.516958    0.429649   1.000    0.00622    0.03136
        434    70 -108.947572 -108.523021    0.424551   1.000    0.00645    0.03117
        435    71 -108.948404 -108.528683    0.419721   1.000    0.00689    0.03085
        436    67 -108.949261 -108.533964    0.415297   1.000    0.00753    0.03040
        437    67 -108.950054 -108.543583    0.406471   1.000    0.00828    0.02982
        438    71 -108.950827 -108.554814    0.396013   1.000    0.00856    0.02927
        439    71 -108.951563 -108.568781    0.382782   1.000    0.00844    0.02900
        440    71 -108.952296 -108.577907    0.374388   1.000    0.00842    0.02874
        441    70 -108.953033 -108.582456    0.370577   1.000    0.00834    0.02856
        442    67 -108.953773 -108.586856    0.366917   1.000    0.00799    0.02854
        443    71 -108.954559 -108.591714    0.362845   1.000    0.00771    0.02848
        444    67 -108.955191 -108.597578    0.357613   1.000    0.00724    0.02847
        445    65 -108.955997 -108.601433    0.354563   1.000    0.00665    0.02848
        446    67 -108.956696 -108.603583    0.353113   1.000    0.00591    0.02854
        447    56 -108.957446 -108.606597    0.350848   1.000    0.00505    0.02861
        448    67 -108.958138 -108.609413    0.348724   1.000    0.00446    0.02848
        449    56 -108.958834 -108.609083    0.349751   1.000    0.00408    0.02841
        450    65 -108.959569 -108.610010    0.349559   1.000    0.00396    0.02832
        451    56 -108.960250 -108.608525    0.351724   1.000    0.00392    0.02820
        452    70 -108.960999 -108.606707    0.354292   1.000    0.00402    0.02809
        453    51 -108.961742 -108.604700    0.357042   1.000    0.00413    0.02799
        454    61 -108.962516 -108.602004    0.360512   1.000    0.00422    0.02793
        455    50 -108.963277 -108.600805    0.362472   1.000    0.00435    0.02784
        456    67 -108.964061 -108.596690    0.367371   1.000    0.00450    0.02778
        457    51 -108.964829 -108.593991    0.370838   1.000    0.00454    0.02774
        458    62 -108.965575 -108.591459    0.374116   1.000    0.00455    0.02770
        459    51 -108.966314 -108.589939    0.376375   1.000    0.00454    0.02767
        460    62 -108.967035 -108.589575    0.377459   1.000    0.00458    0.02764
        461    51 -108.967795 -108.589921    0.377874   1.000    0.00456    0.02760
        462    62 -108.968510 -108.591612    0.376898   1.000    0.00452    0.02757
        463    48 -108.969276 -108.594016    0.375259   1.000    0.00443    0.02752
        464    62 -108.969976 -108.596694    0.373283   1.000    0.00438    0.02748
        465    50 -108.970722 -108.598680    0.372042   1.000    0.00424    0.02743
        466    62 -108.971432 -108.600608    0.370824   1.000    0.00412    0.02739
        467    43 -108.972160 -108.602046    0.370114   1.000    0.00390    0.02736
        468    61 -108.972900 -108.602420    0.370481   1.000    0.00368    0.02733
        469    43 -108.973624 -108.603590    0.370034   1.000    0.00340    0.02730
        470    61 -108.974380 -108.603230    0.371151   1.000    0.00312    0.02728
        471    50 -108.975105 -108.604091    0.371015   1.000    0.00284    0.02727
        472    61 -108.975861 -108.606124    0.369736   1.000    0.00262    0.02724
        473    56 -108.976602 -108.606395    0.370207   1.000    0.00245    0.02721
        474    61 -108.977352 -108.607504    0.369848   1.000    0.00233    0.02718
        475    55 -108.978106 -108.608177    0.369929   1.000    0.00225    0.02714
        476    67 -108.978851 -108.608911    0.369940   1.000    0.00222    0.02710
        477    47 -108.979594 -108.609327    0.370267   1.000    0.00219    0.02706
        478    67 -108.980331 -108.609973    0.370358   1.000    0.00218    0.02701
        479    49 -108.981069 -108.610326    0.370743   1.000    0.00216    0.02697
        480    67 -108.981792 -108.611168    0.370624   1.000    0.00215    0.02692
        481    50 -108.982518 -108.611558    0.370961   1.000    0.00215    0.02688
        482    67 -108.983228 -108.612428    0.370801   1.000    0.00215    0.02684
        483    49 -108.983939 -108.612728    0.371211   1.000    0.00213    0.02680
        484    67 -108.984584 -108.613493    0.371091   1.000    0.00201    0.02676
        485    55 -108.985287 -108.614304    0.370983   1.000    0.00204    0.02672
        486    70 -108.985979 -108.614946    0.371033   1.000    0.00215    0.02666
        487    54 -108.986675 -108.615424    0.371251   1.000    0.00239    0.02655
        488    67 -108.987355 -108.617377    0.369978   1.000    0.00580    0.02578
        489    55 -108.988044 -108.635532    0.352513   1.000    0.00939    0.02345
        490    71 -108.988728 -108.668080    0.320647   1.000    0.00985    0.02180
        491    71 -108.989327 -108.700436    0.288891   1.000    0.00800    0.02195
        492    75 -108.989729 -108.727851    0.261879   1.000    0.00693    0.02181
        493    72 -108.990069 -108.756782    0.233287   1.000    0.00738    0.02077
        494    72 -108.990467 -108.786539    0.203928   1.000    0.00690    0.02018
        495    67 -108.990662 -108.802201    0.188461   1.000    0.00687    0.01988
        496    61 -108.990457 -108.808091    0.182366   1.000    0.00658    0.01966
        497    56 -108.990616 -108.811273    0.179343   1.000    0.00680    0.01942
        498    61 -108.990669 -108.809827    0.180842   1.000    0.00744    0.01907
        499    50 -108.990891 -108.808572    0.182319   1.000    0.00806    0.01871

        ==> Orbital Optimization <==

            Orbital Optimization did not converge in  20 iterations 
            Total energy change: -4.391395e-02
            Final gradient norm: 9.178994e-05

        500    61 -109.035139 -108.894951    0.140188   0.457    0.00843    0.01844
        501    90 -109.050847 -108.471923    0.578924   0.457    0.08377    0.06464
        502    67 -109.057508 -108.717771    0.339737   0.457    0.10639    0.04069
        503    72 -109.057762 -108.949742    0.108020   0.457    0.09014    0.03306
        504    75 -109.053210 -109.053679    0.000469   0.457    0.06723    0.03362
        505    65 -109.049208 -109.064795    0.015586   0.457    0.05432    0.03284
        506    66 -109.046116 -109.022901    0.023214   0.457    0.05210    0.03067
        507    66 -109.044217 -108.972918    0.071299   0.457    0.04999    0.02769
        508    66 -109.043900 -108.909108    0.134792   0.457    0.04365    0.02568
        509    56 -109.043943 -108.870715    0.173228   0.457    0.03699    0.02412
        510    56 -109.044710 -108.843890    0.200821   0.457    0.03279    0.02315
        511    56 -109.045452 -108.845678    0.199774   0.457    0.03325    0.02207
        512    56 -109.050970 -108.861549    0.189421   0.457    0.02915    0.02056
        513    61 -109.050146 -108.879321    0.170825   0.457    0.02921    0.01950
        514    50 -109.053971 -108.893530    0.160441   0.457    0.02338    0.01882
        515    56 -109.055128 -108.902958    0.152170   0.457    0.02054    0.01826
        516    50 -109.057426 -108.912688    0.144738   0.457    0.02168    0.01757
        517    56 -109.058205 -108.914279    0.143926   0.457    0.02319    0.01690
        518    56 -109.059118 -108.918444    0.140674   0.457    0.02410    0.01638
        519    56 -109.059266 -108.922110    0.137157   0.457    0.02355    0.01592
        520    56 -109.059428 -108.926581    0.132847   0.457    0.02224    0.01558
        521    50 -109.059299 -108.930535    0.128764   0.457    0.02104    0.01524
        522    43 -109.059525 -108.935076    0.124449   0.457    0.02032    0.01488
        523    43 -109.059801 -108.936445    0.123355   0.457    0.02020    0.01453
        524    35 -109.060353 -108.940694    0.119659   0.457    0.02021    0.01421
        525    36 -109.060875 -108.941771    0.119104   0.457    0.02056    0.01393
        526    33 -109.061494 -108.941281    0.120213   0.457    0.02123    0.01367
        527    27 -109.062325 -108.938887    0.123438   0.457    0.02207    0.01343
        528    35 -109.062767 -108.938146    0.124621   0.457    0.02283    0.01319
        529    27 -109.062777 -108.934426    0.128350   0.457    0.02127    0.01296
        530    38 -109.060611 -108.933517    0.127094   0.457    0.01650    0.01277
        531    42 -109.061612 -108.934207    0.127405   0.457    0.01603    0.01254
        532    35 -109.061363 -108.933543    0.127820   0.457    0.01548    0.01232
        533    52 -109.061913 -108.934498    0.127415   0.457    0.01520    0.01212
        534    34 -109.061989 -108.936937    0.125053   0.457    0.01481    0.01192
        535    36 -109.062296 -108.939526    0.122770   0.457    0.01452    0.01173
        536    52 -109.062524 -108.941441    0.121083   0.457    0.01426    0.01155
        537    31 -109.062711 -108.945411    0.117300   0.457    0.01400    0.01137
        538    43 -109.062925 -108.947837    0.115088   0.457    0.01378    0.01119
        539    43 -109.063182 -108.949145    0.114037   0.457    0.01353    0.01104
        540    34 -109.063314 -108.953595    0.109720   0.457    0.01333    0.01086
        541    35 -109.063440 -108.955135    0.108305   0.457    0.01317    0.01070
        542    27 -109.063672 -108.956815    0.106857   0.457    0.01306    0.01054
        543    27 -109.063821 -108.958563    0.105259   0.457    0.01293    0.01039
        544    26 -109.063955 -108.959916    0.104039   0.457    0.01281    0.01023
        545    35 -109.063993 -108.961330    0.102663   0.457    0.01262    0.01008
        546    24 -109.064163 -108.963118    0.101046   0.457    0.01241    0.00994
        547    27 -109.064344 -108.963057    0.101287   0.457    0.01224    0.00980
        548    35 -109.064400 -108.966325    0.098075   0.457    0.01207    0.00965
        549    25 -109.064649 -108.966531    0.098117   0.457    0.01191    0.00951
        550    35 -109.064588 -108.969482    0.095106   0.457    0.01179    0.00938
        551    24 -109.064891 -108.969824    0.095067   0.457    0.01170    0.00924
        552    27 -109.064916 -108.972101    0.092815   0.457    0.01158    0.00911
        553    34 -109.065058 -108.972690    0.092367   0.457    0.01146    0.00898
        554    24 -109.065167 -108.975211    0.089956   0.457    0.01129    0.00885
        555    34 -109.065248 -108.975641    0.089607   0.457    0.01117    0.00872
        556    22 -109.065430 -108.976834    0.088596   0.457    0.01106    0.00859
        557    34 -109.065388 -108.978273    0.087116   0.457    0.01092    0.00847
        558    26 -109.065616 -108.979527    0.086089   0.457    0.01080    0.00835
        559    27 -109.065658 -108.980179    0.085480   0.457    0.01070    0.00823
        560    34 -109.065790 -108.982055    0.083735   0.457    0.01056    0.00811
        561    24 -109.065928 -108.982668    0.083259   0.457    0.01046    0.00799
        562    34 -109.065940 -108.984504    0.081437   0.457    0.01034    0.00788
        563    22 -109.066165 -108.985615    0.080550   0.457    0.01024    0.00777
        564    34 -109.066113 -108.987304    0.078809   0.457    0.01014    0.00765
        565    26 -109.066351 -108.987652    0.078699   0.457    0.01008    0.00754
        566    35 -109.066297 -108.989960    0.076337   0.457    0.00997    0.00743
        567    24 -109.066522 -108.990910    0.075612   0.457    0.00989    0.00733
        568    34 -109.066468 -108.992693    0.073775   0.457    0.00980    0.00722
        569    27 -109.066692 -108.993248    0.073444   0.457    0.00974    0.00712
        570    27 -109.066673 -108.995285    0.071388   0.457    0.00965    0.00701
        571    36 -109.066774 -108.996057    0.070717   0.457    0.00958    0.00691
        572    26 -109.066854 -108.997927    0.068927   0.457    0.00947    0.00681
        573    38 -109.066872 -108.999280    0.067592   0.457    0.00939    0.00671
        574    24 -109.067036 -109.000325    0.066711   0.457    0.00933    0.00661
        575    34 -109.066959 -109.002150    0.064809   0.457    0.00925    0.00651
        576    26 -109.067135 -109.003444    0.063691   0.457    0.00919    0.00642
        577    34 -109.067084 -109.004572    0.062512   0.457    0.00914    0.00632
        578    27 -109.067239 -109.005564    0.061675   0.457    0.00910    0.00623
        579    27 -109.067054 -109.006358    0.060696   0.457    0.00864    0.00613
        580    35 -109.066523 -109.007748    0.058775   0.457    0.00748    0.00605
        581    33 -109.066739 -109.008927    0.057811   0.457    0.00736    0.00595
        582    35 -109.066667 -109.009517    0.057150   0.457    0.00725    0.00586
        583    27 -109.066803 -109.010624    0.056180   0.457    0.00716    0.00577
        584    35 -109.066748 -109.011467    0.055282   0.457    0.00707    0.00568
        585    25 -109.066879 -109.012213    0.054666   0.457    0.00701    0.00560
        586    34 -109.066845 -109.013470    0.053375   0.457    0.00695    0.00551
        587    27 -109.066965 -109.014382    0.052583   0.457    0.00690    0.00543
        588    35 -109.066946 -109.015161    0.051785   0.457    0.00688    0.00534
        589    25 -109.067042 -109.015507    0.051535   0.457    0.00685    0.00526
        590    35 -109.067024 -109.016573    0.050451   0.457    0.00681    0.00518
        591    25 -109.067121 -109.017344    0.049778   0.457    0.00675    0.00510
        592    34 -109.067097 -109.018019    0.049078   0.457    0.00670    0.00502
        593    27 -109.067190 -109.018409    0.048780   0.457    0.00664    0.00494
        594    35 -109.067156 -109.019613    0.047543   0.457    0.00657    0.00486
        595    26 -109.067250 -109.020264    0.046985   0.457    0.00650    0.00479
        596    34 -109.067236 -109.021316    0.045919   0.457    0.00645    0.00471
        597    27 -109.067331 -109.021627    0.045704   0.457    0.00640    0.00464
        598    36 -109.067295 -109.022970    0.044325   0.457    0.00635    0.00457
        599    34 -109.067378 -109.023664    0.043713   0.457    0.00630    0.00449
        600    35 -109.067372 -109.024722    0.042650   0.457    0.00627    0.00442
        601    27 -109.067448 -109.025532    0.041916   0.457    0.00623    0.00435
        602    37 -109.067410 -109.026411    0.040999   0.457    0.00620    0.00428
        603    25 -109.067495 -109.026984    0.040511   0.457    0.00618    0.00421
        604    36 -109.067460 -109.027930    0.039530   0.457    0.00615    0.00415
        605    34 -109.067515 -109.028776    0.038739   0.457    0.00611    0.00408
        606    27 -109.067535 -109.029479    0.038056   0.457    0.00607    0.00402
        607    36 -109.067532 -109.030189    0.037343   0.457    0.00603    0.00395
        608    27 -109.067460 -109.030904    0.036556   0.457    0.00573    0.00389
        609    43 -109.067420 -109.032098    0.035322   0.457    0.00570    0.00383
        610    34 -109.067460 -109.032557    0.034903   0.457    0.00568    0.00376
        611    34 -109.067428 -109.033614    0.033815   0.457    0.00564    0.00370
        612    43 -109.067202 -109.034250    0.032953   0.457    0.00524    0.00364
        613    36 -109.067311 -109.034795    0.032516   0.457    0.00518    0.00358
        614    34 -109.067269 -109.035374    0.031895   0.457    0.00517    0.00352
        615    34 -109.067240 -109.035879    0.031361   0.457    0.00509    0.00346
        616    41 -109.067197 -109.036591    0.030606   0.457    0.00490    0.00340
        617    34 -109.067100 -109.036770    0.030330   0.457    0.00478    0.00335
        618    43 -109.067156 -109.037895    0.029261   0.457    0.00473    0.00329
        619    36 -109.067136 -109.037841    0.029295   0.457    0.00472    0.00324
        620    43 -109.066929 -109.038931    0.027998   0.457    0.00388    0.00319
        621    43 -109.066706 -109.039073    0.027634   0.457    0.00331    0.00314
        622    34 -109.066840 -109.039689    0.027150   0.457    0.00308    0.00308
        623    34 -109.066773 -109.040125    0.026648   0.457    0.00299    0.00302
        624    41 -109.066817 -109.040641    0.026176   0.457    0.00294    0.00297
        625    35 -109.066808 -109.040638    0.026170   0.457    0.00290    0.00292
        626    43 -109.066823 -109.041442    0.025381   0.457    0.00287    0.00287
        627    35 -109.066842 -109.041382    0.025460   0.457    0.00284    0.00282
        628    34 -109.066838 -109.042268    0.024571   0.457    0.00282    0.00277
        629    43 -109.066864 -109.042380    0.024484   0.457    0.00280    0.00273
        630    34 -109.066875 -109.042817    0.024058   0.457    0.00278    0.00268
        631    43 -109.066898 -109.043441    0.023457   0.457    0.00276    0.00263
        632    43 -109.066895 -109.043849    0.023046   0.457    0.00275    0.00259
        633    41 -109.066913 -109.044115    0.022797   0.457    0.00273    0.00255
        634    43 -109.066914 -109.044749    0.022164   0.457    0.00271    0.00250
        635    43 -109.066927 -109.045120    0.021807   0.457    0.00269    0.00246
        636    43 -109.066930 -109.045494    0.021436   0.457    0.00268    0.00242
        637    35 -109.066942 -109.045904    0.021038   0.457    0.00266    0.00238
        638    34 -109.066943 -109.046469    0.020474   0.457    0.00264    0.00233
        639    43 -109.066949 -109.046859    0.020091   0.457    0.00263    0.00229
        640    41 -109.066957 -109.047239    0.019718   0.457    0.00261    0.00225
        641    34 -109.066959 -109.047521    0.019438   0.457    0.00260    0.00222
        642    56 -109.066959 -109.048159    0.018800   0.457    0.00259    0.00218
        643    32 -109.066963 -109.048279    0.018684   0.457    0.00257    0.00214
        644    41 -109.066966 -109.048924    0.018043   0.457    0.00255    0.00210
        645    56 -109.066970 -109.049053    0.017916   0.457    0.00254    0.00207
        646    35 -109.066964 -109.049532    0.017431   0.457    0.00252    0.00203
        647    43 -109.066979 -109.049879    0.017100   0.457    0.00251    0.00199
        648    50 -109.066976 -109.050099    0.016877   0.457    0.00250    0.00196
        649    32 -109.066977 -109.050530    0.016447   0.457    0.00248    0.00193
        650    51 -109.066975 -109.050838    0.016137   0.457    0.00247    0.00189
        651    30 -109.066990 -109.051049    0.015940   0.457    0.00245    0.00186
        652    54 -109.066975 -109.051511    0.015464   0.457    0.00245    0.00183
        653    32 -109.066988 -109.051596    0.015392   0.457    0.00243    0.00179
        654    43 -109.066982 -109.052094    0.014887   0.457    0.00242    0.00176
        655    56 -109.066986 -109.052147    0.014839   0.457    0.00241    0.00173
        656    34 -109.066976 -109.052564    0.014413   0.457    0.00240    0.00170
        657    43 -109.066989 -109.052783    0.014206   0.457    0.00238    0.00167
        658    56 -109.066983 -109.052982    0.014001   0.457    0.00238    0.00164
        659    41 -109.066991 -109.053294    0.013697   0.457    0.00236    0.00161
        660    43 -109.066986 -109.053568    0.013418   0.457    0.00235    0.00158
        661    56 -109.066997 -109.053673    0.013324   0.457    0.00234    0.00156
        662    41 -109.066987 -109.054084    0.012903   0.457    0.00233    0.00153
        663    56 -109.066995 -109.054215    0.012779   0.457    0.00232    0.00150
        664    41 -109.066992 -109.054517    0.012475   0.457    0.00230    0.00147
        665    56 -109.066993 -109.054730    0.012263   0.457    0.00230    0.00145
        666    40 -109.066994 -109.054963    0.012031   0.457    0.00229    0.00142
        667    56 -109.066996 -109.055195    0.011800   0.457    0.00228    0.00140
        668    41 -109.066994 -109.055425    0.011569   0.457    0.00227    0.00137
        669    56 -109.066996 -109.055624    0.011372   0.457    0.00226    0.00135
        670    43 -109.066992 -109.055872    0.011120   0.457    0.00225    0.00132
        671    56 -109.066996 -109.056045    0.010951   0.457    0.00224    0.00130
        672    40 -109.066991 -109.056293    0.010698   0.457    0.00223    0.00128
        673    56 -109.066995 -109.056460    0.010535   0.457    0.00222    0.00125
        674    41 -109.066991 -109.056698    0.010293   0.457    0.00221    0.00123
        675    56 -109.066993 -109.056858    0.010135   0.457    0.00220    0.00121
        676    41 -109.066989 -109.057091    0.009898   0.457    0.00219    0.00119
        677    56 -109.066992 -109.057237    0.009756   0.457    0.00218    0.00117
        678    43 -109.066986 -109.057469    0.009517   0.457    0.00217    0.00115
        679    56 -109.066991 -109.057599    0.009392   0.457    0.00217    0.00112
        680    41 -109.066985 -109.057826    0.009159   0.457    0.00216    0.00110
        681    56 -109.066987 -109.057947    0.009041   0.457    0.00215    0.00108
        682    41 -109.066981 -109.058166    0.008815   0.457    0.00214    0.00106
        683    57 -109.066986 -109.058282    0.008704   0.457    0.00213    0.00105
        684    43 -109.066979 -109.058494    0.008485   0.457    0.00212    0.00103
        685    56 -109.066983 -109.058588    0.008394   0.457    0.00212    0.00101
        686    43 -109.066978 -109.058818    0.008160   0.457    0.00211    0.00099
        687    56 -109.066980 -109.058903    0.008077   0.457    0.00210    0.00097
        688    43 -109.066974 -109.059136    0.007838   0.457    0.00209    0.00095
        689    61 -109.066977 -109.059208    0.007768   0.457    0.00208    0.00094
        690    42 -109.066969 -109.059390    0.007579   0.457    0.00207    0.00092
        691    56 -109.066977 -109.059496    0.007481   0.457    0.00207    0.00090
        692    42 -109.066967 -109.059717    0.007250   0.457    0.00206    0.00089
        693    56 -109.066971 -109.059766    0.007205   0.457    0.00205    0.00087
        694    43 -109.066966 -109.059981    0.006985   0.457    0.00204    0.00086
        695    56 -109.066968 -109.060019    0.006948   0.457    0.00204    0.00084
        696    42 -109.066961 -109.060249    0.006711   0.457    0.00203    0.00082
        697    61 -109.066964 -109.060314    0.006650   0.457    0.00202    0.00081
        698    41 -109.066957 -109.060464    0.006493   0.457    0.00201    0.00079
        699    61 -109.066959 -109.060559    0.006401   0.457    0.00201    0.00078
        700    43 -109.066951 -109.060700    0.006251   0.457    0.00200    0.00077
        701    61 -109.066956 -109.060782    0.006174   0.457    0.00199    0.00075
        702    41 -109.066949 -109.060916    0.006033   0.457    0.00198    0.00074
        703    61 -109.066952 -109.060994    0.005958   0.457    0.00197    0.00072
        704    43 -109.066943 -109.061125    0.005818   0.457    0.00196    0.00071
        705    61 -109.066949 -109.061198    0.005751   0.457    0.00196    0.00070
        706    42 -109.066941 -109.061352    0.005589   0.457    0.00194    0.00069
        707    61 -109.066944 -109.061538    0.005406   0.457    0.00194    0.00068
        708    42 -109.066939 -109.061674    0.005266   0.457    0.00193    0.00066
        709    61 -109.066940 -109.061769    0.005171   0.457    0.00192    0.00065
        710    43 -109.066932 -109.061864    0.005068   0.457    0.00191    0.00064
        711    61 -109.066932 -109.061926    0.005005   0.457    0.00190    0.00063
        712    43 -109.066923 -109.062020    0.004903   0.457    0.00190    0.00061
        713    61 -109.066925 -109.062068    0.004856   0.457    0.00189    0.00060
        714    42 -109.066915 -109.062168    0.004748   0.457    0.00188    0.00059
        715    61 -109.066919 -109.062218    0.004701   0.457    0.00187    0.00058
        716    42 -109.066910 -109.062317    0.004593   0.457    0.00185    0.00057
        717    61 -109.066914 -109.062371    0.004543   0.457    0.00185    0.00056
        718    41 -109.066907 -109.062467    0.004440   0.457    0.00183    0.00055
        719    61 -109.066908 -109.062573    0.004335   0.457    0.00182    0.00054
        720    42 -109.066903 -109.062708    0.004195   0.457    0.00180    0.00053
        721    62 -109.066905 -109.062781    0.004124   0.457    0.00180    0.00052
        722    43 -109.066899 -109.062861    0.004038   0.457    0.00179    0.00051
        723    61 -109.066899 -109.062906    0.003993   0.457    0.00179    0.00050
        724    43 -109.066891 -109.062983    0.003907   0.457    0.00178    0.00049
        725    61 -109.066894 -109.063019    0.003875   0.457    0.00177    0.00048
        726    42 -109.066885 -109.063094    0.003790   0.457    0.00176    0.00047
        727    61 -109.066890 -109.063128    0.003762   0.457    0.00175    0.00047
        728    43 -109.066881 -109.063204    0.003677   0.457    0.00175    0.00046
        729    62 -109.066885 -109.063239    0.003647   0.457    0.00174    0.00045
        730    42 -109.066877 -109.063316    0.003561   0.457    0.00173    0.00044
        731    61 -109.066881 -109.063354    0.003527   0.457    0.00172    0.00043
        732    42 -109.066874 -109.063429    0.003446   0.457    0.00171    0.00042
        733    61 -109.066878 -109.063468    0.003410   0.457    0.00171    0.00042
        734    43 -109.066871 -109.063542    0.003329   0.457    0.00170    0.00041
        735    62 -109.066874 -109.063577    0.003297   0.457    0.00169    0.00040
        736    42 -109.066868 -109.063650    0.003217   0.457    0.00168    0.00040
        737    61 -109.066870 -109.063688    0.003182   0.457    0.00168    0.00039
        738    47 -109.066865 -109.063767    0.003098   0.457    0.00167    0.00038
        739    62 -109.066868 -109.063783    0.003086   0.457    0.00166    0.00037
        740    47 -109.066860 -109.063894    0.002966   0.457    0.00165    0.00037
        741    66 -109.066863 -109.063889    0.002975   0.457    0.00164    0.00036
        742    47 -109.066857 -109.064006    0.002851   0.457    0.00164    0.00036
        743    66 -109.066859 -109.064059    0.002800   0.457    0.00163    0.00035
        744    47 -109.066854 -109.064204    0.002651   0.457    0.00162    0.00034
        745    66 -109.066856 -109.064207    0.002649   0.457    0.00161    0.00034
        746    51 -109.066850 -109.064320    0.002529   0.457    0.00161    0.00033
        747    62 -109.066852 -109.064315    0.002537   0.457    0.00160    0.00032
        748    49 -109.066844 -109.064419    0.002425   0.457    0.00160    0.00032
        749    62 -109.066846 -109.064405    0.002441   0.457    0.00159    0.00032
        750    51 -109.066837 -109.064536    0.002301   0.457    0.00158    0.00031
        751    66 -109.066838 -109.064511    0.002327   0.457    0.00157    0.00030
        752    49 -109.066830 -109.064614    0.002216   0.457    0.00157    0.00030
        753    67 -109.066832 -109.064573    0.002258   0.457    0.00156    0.00029
        754    49 -109.066825 -109.064660    0.002164   0.457    0.00156    0.00028
        755    67 -109.066827 -109.064615    0.002212   0.457    0.00155    0.00028
        756    56 -109.066821 -109.064679    0.002142   0.457    0.00154    0.00027
        757    71 -109.066821 -109.064666    0.002156   0.457    0.00153    0.00028
        758    49 -109.066817 -109.064755    0.002061   0.457    0.00153    0.00027
        759    71 -109.066817 -109.064726    0.002091   0.457    0.00152    0.00026
        760    49 -109.066812 -109.064803    0.002009   0.457    0.00151    0.00026
        761    71 -109.066813 -109.064763    0.002050   0.457    0.00151    0.00025
        762    49 -109.066809 -109.064834    0.001975   0.457    0.00150    0.00025
        763    67 -109.066809 -109.064833    0.001975   0.457    0.00149    0.00024
        764    49 -109.066805 -109.064902    0.001903   0.457    0.00148    0.00024
        765    71 -109.066804 -109.064884    0.001921   0.457    0.00147    0.00024
        766    56 -109.066801 -109.064960    0.001842   0.457    0.00146    0.00024
        767    66 -109.066798 -109.065015    0.001784   0.457    0.00145    0.00023
        768    56 -109.066795 -109.065056    0.001739   0.457    0.00144    0.00022
        769    67 -109.066792 -109.065096    0.001695   0.457    0.00143    0.00022
        770    56 -109.066789 -109.065109    0.001680   0.457    0.00143    0.00022
        771    67 -109.066785 -109.065117    0.001668   0.457    0.00142    0.00021
        772    51 -109.066783 -109.065139    0.001644   0.457    0.00141    0.00022
        773    71 -109.066779 -109.065184    0.001596   0.457    0.00141    0.00021
        774    49 -109.066777 -109.065189    0.001588   0.457    0.00140    0.00020
        775    67 -109.066775 -109.065218    0.001557   0.457    0.00139    0.00020
        776    49 -109.066772 -109.065261    0.001511   0.457    0.00138    0.00020
        777    67 -109.066770 -109.065298    0.001472   0.457    0.00137    0.00020
        778    47 -109.066764 -109.065360    0.001404   0.457    0.00136    0.00019
        779    67 -109.066763 -109.065363    0.001400   0.457    0.00136    0.00019
        780    49 -109.066758 -109.065400    0.001358   0.457    0.00136    0.00018
        781    71 -109.066757 -109.065383    0.001374   0.457    0.00135    0.00018
        782    49 -109.066752 -109.065392    0.001360   0.457    0.00135    0.00018
        783    67 -109.066753 -109.065377    0.001376   0.457    0.00135    0.00018
        784    49 -109.066748 -109.065419    0.001330   0.457    0.00134    0.00017
        785    56 -109.066750 -109.065453    0.001297   0.457    0.00134    0.00017
        786    61 -109.066747 -109.065458    0.001289   0.457    0.00133    0.00016
        787    49 -109.066745 -109.065499    0.001247   0.457    0.00133    0.00016
        788    67 -109.066746 -109.065480    0.001266   0.457    0.00133    0.00016
        789    49 -109.066743 -109.065506    0.001236   0.457    0.00132    0.00016
        790    67 -109.066744 -109.065492    0.001252   0.457    0.00132    0.00015
        791    50 -109.066741 -109.065512    0.001228   0.457    0.00132    0.00015
        792    72 -109.066743 -109.065506    0.001236   0.457    0.00132    0.00015
        793    50 -109.066740 -109.065524    0.001216   0.457    0.00131    0.00015
        794    67 -109.066742 -109.065529    0.001212   0.457    0.00131    0.00014
        795    50 -109.066739 -109.065547    0.001192   0.457    0.00131    0.00014
        796    67 -109.066740 -109.065556    0.001185   0.457    0.00131    0.00014
        797    50 -109.066738 -109.065577    0.001161   0.457    0.00130    0.00014
[...]
       3409    69 -109.091492 -109.091041    0.000451   4.374    0.00009    0.00017
       3410    52 -109.091492 -109.091032    0.000461   4.374    0.00009    0.00017
       3411    70 -109.091492 -109.091042    0.000451   4.374    0.00009    0.00017
       3412    53 -109.091492 -109.091034    0.000458   4.374    0.00009    0.00017
       3413    70 -109.091492 -109.091042    0.000450   4.374    0.00009    0.00017
       3414    54 -109.091492 -109.091034    0.000459   4.374    0.00009    0.00017
       3415    70 -109.091492 -109.091042    0.000450   4.374    0.00009    0.00017
       3416    54 -109.091492 -109.091035    0.000457   4.374    0.00009    0.00017
       3417    74 -109.091492 -109.091043    0.000449   4.374    0.00009    0.00017
       3418    52 -109.091492 -109.091036    0.000456   4.374    0.00009    0.00017
       3419    69 -109.091492 -109.091044    0.000448   4.374    0.00009    0.00017
       3420    54 -109.091492 -109.091035    0.000457   4.374    0.00009    0.00017
       3421    70 -109.091492 -109.091044    0.000448   4.374    0.00009    0.00017
       3422    53 -109.091492 -109.091037    0.000455   4.374    0.00009    0.00017
       3423    70 -109.091492 -109.091045    0.000447   4.374    0.00009    0.00017
       3424    54 -109.091492 -109.091037    0.000455   4.374    0.00009    0.00016
       3425    70 -109.091492 -109.091045    0.000447   4.374    0.00009    0.00016
       3426    54 -109.091492 -109.091039    0.000453   4.374    0.00009    0.00016
       3427    69 -109.091492 -109.091046    0.000446   4.374    0.00009    0.00016
       3428    54 -109.091492 -109.091038    0.000454   4.374    0.00009    0.00016
       3429    71 -109.091492 -109.091046    0.000446   4.374    0.00009    0.00016
       3430    52 -109.091492 -109.091040    0.000452   4.374    0.00009    0.00016
       3431    75 -109.091492 -109.091047    0.000445   4.374    0.00009    0.00016
       3432    53 -109.091492 -109.091040    0.000452   4.374    0.00009    0.00016
       3433    75 -109.091492 -109.091048    0.000444   4.374    0.00009    0.00016
       3434    54 -109.091492 -109.091041    0.000451   4.374    0.00009    0.00016
       3435    74 -109.091492 -109.091048    0.000443   4.374    0.00009    0.00016
       3436    54 -109.091492 -109.091042    0.000450   4.374    0.00009    0.00016
       3437    75 -109.091492 -109.091048    0.000443   4.374    0.00009    0.00016
       3438    55 -109.091492 -109.091043    0.000449   4.374    0.00009    0.00016
       3439    69 -109.091491 -109.091049    0.000442   4.374    0.00009    0.00016
       3440    54 -109.091492 -109.091042    0.000450   4.374    0.00009    0.00016
       3441    70 -109.091491 -109.091050    0.000441   4.374    0.00009    0.00016
       3442    53 -109.091492 -109.091044    0.000448   4.374    0.00009    0.00016
       3443    75 -109.091491 -109.091050    0.000441   4.374    0.00009    0.00016
       3444    54 -109.091492 -109.091044    0.000447   4.374    0.00009    0.00016
       3445    69 -109.091491 -109.091051    0.000440   4.374    0.00009    0.00016
       3446    54 -109.091491 -109.091044    0.000448   4.374    0.00009    0.00016
       3447    70 -109.091491 -109.091052    0.000440   4.374    0.00009    0.00016
       3448    52 -109.091491 -109.091046    0.000446   4.374    0.00009    0.00016
       3449    69 -109.091491 -109.091052    0.000439   4.374    0.00009    0.00016
       3450    54 -109.091491 -109.091046    0.000446   4.374    0.00009    0.00016
       3451    70 -109.091491 -109.091052    0.000439   4.374    0.00009    0.00016
       3452    54 -109.091491 -109.091047    0.000444   4.374    0.00009    0.00016
       3453    75 -109.091491 -109.091053    0.000438   4.374    0.00009    0.00016
       3454    54 -109.091491 -109.091047    0.000444   4.374    0.00009    0.00016
       3455    74 -109.091491 -109.091054    0.000437   4.374    0.00009    0.00016
       3456    54 -109.091491 -109.091048    0.000443   4.374    0.00009    0.00016
       3457    75 -109.091491 -109.091054    0.000437   4.374    0.00009    0.00016
       3458    54 -109.091491 -109.091048    0.000443   4.374    0.00009    0.00016
       3459    75 -109.091491 -109.091055    0.000436   4.374    0.00009    0.00016
       3460    52 -109.091491 -109.091049    0.000442   4.374    0.00009    0.00016
       3461    75 -109.091491 -109.091055    0.000436   4.374    0.00009    0.00016
       3462    54 -109.091491 -109.091050    0.000441   4.374    0.00009    0.00016
       3463    75 -109.091491 -109.091056    0.000435   4.374    0.00009    0.00016
       3464    54 -109.091491 -109.091050    0.000441   4.374    0.00009    0.00016
       3465    74 -109.091491 -109.091056    0.000435   4.374    0.00009    0.00016
       3466    54 -109.091491 -109.091051    0.000440   4.374    0.00009    0.00016
       3467    75 -109.091491 -109.091057    0.000434   4.374    0.00009    0.00016
       3468    54 -109.091491 -109.091052    0.000439   4.374    0.00009    0.00016
       3469    69 -109.091491 -109.091057    0.000433   4.374    0.00009    0.00016
       3470    54 -109.091491 -109.091051    0.000440   4.374    0.00009    0.00016
       3471    71 -109.091491 -109.091058    0.000433   4.374    0.00009    0.00016
       3472    54 -109.091491 -109.091053    0.000438   4.374    0.00009    0.00016
       3473    74 -109.091490 -109.091058    0.000432   4.374    0.00009    0.00016
       3474    54 -109.091491 -109.091053    0.000438   4.374    0.00009    0.00016
       3475    75 -109.091490 -109.091059    0.000432   4.374    0.00009    0.00016
       3476    54 -109.091491 -109.091053    0.000437   4.374    0.00009    0.00016
       3477    75 -109.091490 -109.091059    0.000431   4.374    0.00009    0.00016
       3478    54 -109.091491 -109.091054    0.000436   4.374    0.00009    0.00016
       3479    75 -109.091490 -109.091060    0.000431   4.374    0.00009    0.00016
       3480    54 -109.091490 -109.091055    0.000436   4.374    0.00009    0.00016
       3481    74 -109.091490 -109.091060    0.000430   4.374    0.00009    0.00016
       3482    54 -109.091490 -109.091055    0.000435   4.374    0.00009    0.00016
       3483    75 -109.091490 -109.091061    0.000430   4.374    0.00009    0.00016
       3484    54 -109.091490 -109.091056    0.000435   4.374    0.00009    0.00016
       3485    75 -109.091490 -109.091061    0.000429   4.374    0.00009    0.00015
       3486    54 -109.091490 -109.091056    0.000434   4.374    0.00009    0.00015
       3487    74 -109.091490 -109.091062    0.000429   4.374    0.00009    0.00015
       3488    54 -109.091490 -109.091057    0.000433   4.374    0.00009    0.00015
       3489    75 -109.091490 -109.091062    0.000428   4.374    0.00009    0.00015
       3490    54 -109.091490 -109.091057    0.000433   4.374    0.00009    0.00015
       3491    74 -109.091490 -109.091063    0.000427   4.374    0.00009    0.00015
       3492    54 -109.091490 -109.091058    0.000432   4.374    0.00009    0.00015
       3493    75 -109.091490 -109.091063    0.000427   4.374    0.00009    0.00015
       3494    54 -109.091490 -109.091058    0.000432   4.374    0.00009    0.00015
       3495    75 -109.091490 -109.091064    0.000426   4.374    0.00009    0.00015
       3496    54 -109.091490 -109.091059    0.000431   4.374    0.00009    0.00015
       3497    74 -109.091490 -109.091064    0.000426   4.374    0.00009    0.00015
       3498    54 -109.091490 -109.091059    0.000430   4.374    0.00009    0.00015
       3499    75 -109.091490 -109.091065    0.000425   4.374    0.00009    0.00015

        ==> Orbital Optimization <==

            Orbital Optimization converged in   1 iterations 
            Total energy change: -5.662685e-09
            Final gradient norm: 9.683342e-05

       3500    52 -109.091490 -109.090929    0.000561   2.592    0.00009    0.00015
       3501    76 -109.091490 -109.091026    0.000463   2.592    0.00009    0.00015
       3502    53 -109.091490 -109.091016    0.000474   2.592    0.00009    0.00015
       3503    53 -109.091490 -109.091011    0.000479   2.592    0.00009    0.00015
       3504    55 -109.091490 -109.091003    0.000487   2.592    0.00009    0.00015
       3505    55 -109.091490 -109.091006    0.000484   2.592    0.00009    0.00015
       3506    55 -109.091490 -109.091009    0.000481   2.592    0.00009    0.00015
       3507    55 -109.091489 -109.091021    0.000468   2.592    0.00009    0.00015
       3508    54 -109.091489 -109.091027    0.000462   2.592    0.00009    0.00015
       3509    54 -109.091489 -109.091039    0.000450   2.592    0.00009    0.00015
       3510    54 -109.091489 -109.091041    0.000448   2.592    0.00009    0.00015
       3511    54 -109.091488 -109.091044    0.000444   2.592    0.00009    0.00015
       3512    54 -109.091488 -109.091038    0.000451   2.592    0.00009    0.00015
       3513    55 -109.091489 -109.091034    0.000455   2.592    0.00009    0.00015
       3514    61 -109.091489 -109.091027    0.000462   2.592    0.00009    0.00014
       3515    54 -109.091489 -109.091016    0.000474   2.592    0.00009    0.00014
       3516    52 -109.091490 -109.091020    0.000469   2.592    0.00009    0.00014
       3517    61 -109.091490 -109.091018    0.000473   2.592    0.00009    0.00014
       3518    52 -109.091491 -109.091019    0.000472   2.592    0.00009    0.00014
       3519    56 -109.091491 -109.091037    0.000454   2.592    0.00009    0.00014
       3520    69 -109.091491 -109.091043    0.000448   2.592    0.00009    0.00014
       3521    55 -109.091491 -109.091060    0.000432   2.592    0.00009    0.00014
       3522    56 -109.091491 -109.091076    0.000415   2.592    0.00009    0.00014
       3523    69 -109.091491 -109.091085    0.000406   2.592    0.00009    0.00014
       3524    54 -109.091491 -109.091096    0.000395   2.592    0.00009    0.00014
       3525    55 -109.091491 -109.091108    0.000383   2.592    0.00009    0.00014
       3526    69 -109.091491 -109.091109    0.000382   2.592    0.00009    0.00014
       3527    54 -109.091491 -109.091113    0.000378   2.592    0.00009    0.00014
       3528    51 -109.091490 -109.091118    0.000373   2.592    0.00009    0.00014
       3529    69 -109.091490 -109.091114    0.000376   2.592    0.00009    0.00014
       3530    54 -109.091490 -109.091116    0.000374   2.592    0.00009    0.00014
       3531    54 -109.091490 -109.091120    0.000370   2.592    0.00009    0.00014
       3532    69 -109.091490 -109.091118    0.000373   2.592    0.00009    0.00013
       3533    52 -109.091490 -109.091120    0.000370   2.592    0.00009    0.00013
       3534    54 -109.091490 -109.091126    0.000364   2.592    0.00009    0.00013
       3535    64 -109.091490 -109.091123    0.000366   2.592    0.00009    0.00013
       3536    54 -109.091490 -109.091124    0.000365   2.592    0.00009    0.00013
       3537    69 -109.091490 -109.091128    0.000361   2.592    0.00009    0.00013
       3538    54 -109.091489 -109.091125    0.000365   2.592    0.00009    0.00013
       3539    69 -109.091489 -109.091126    0.000363   2.592    0.00009    0.00013
       3540    54 -109.091489 -109.091122    0.000367   2.592    0.00009    0.00013
       3541    52 -109.091489 -109.091124    0.000365   2.592    0.00009    0.00013
       3542    69 -109.091489 -109.091115    0.000374   2.592    0.00009    0.00013
       3543    51 -109.091489 -109.091113    0.000376   2.592    0.00009    0.00013
       3544    54 -109.091489 -109.091112    0.000377   2.592    0.00009    0.00013
       3545    69 -109.091489 -109.091104    0.000384   2.592    0.00009    0.00013
       3546    52 -109.091489 -109.091102    0.000387   2.592    0.00009    0.00013
       3547    55 -109.091489 -109.091102    0.000387   2.592    0.00009    0.00013
       3548    64 -109.091489 -109.091094    0.000394   2.592    0.00009    0.00013
       3549    54 -109.091489 -109.091091    0.000397   2.592    0.00009    0.00013
       3550    55 -109.091489 -109.091093    0.000396   2.592    0.00009    0.00013
       3551    61 -109.091489 -109.091088    0.000400   2.592    0.00009    0.00012
       3552    54 -109.091489 -109.091080    0.000409   2.592    0.00009    0.00012
       3553    69 -109.091489 -109.091086    0.000403   2.592    0.00009    0.00012
       3554    54 -109.091489 -109.091078    0.000411   2.592    0.00009    0.00012
       3555    52 -109.091489 -109.091083    0.000406   2.592    0.00009    0.00012
       3556    60 -109.091489 -109.091076    0.000412   2.592    0.00009    0.00012
       3557    54 -109.091489 -109.091072    0.000417   2.592    0.00009    0.00012
       3558    66 -109.091489 -109.091077    0.000412   2.592    0.00009    0.00012
       3559    54 -109.091489 -109.091070    0.000419   2.592    0.00009    0.00012
       3560    69 -109.091489 -109.091074    0.000415   2.592    0.00009    0.00012
       3561    52 -109.091489 -109.091070    0.000419   2.592    0.00009    0.00012
       3562    70 -109.091489 -109.091073    0.000416   2.592    0.00009    0.00012
       3563    54 -109.091489 -109.091071    0.000418   2.592    0.00009    0.00012
       3564    66 -109.091489 -109.091073    0.000416   2.592    0.00009    0.00012
       3565    54 -109.091489 -109.091073    0.000416   2.592    0.00009    0.00012
       3566    54 -109.091489 -109.091078    0.000411   2.592    0.00009    0.00012
       3567    69 -109.091489 -109.091074    0.000415   2.592    0.00009    0.00012
       3568    53 -109.091489 -109.091077    0.000412   2.592    0.00009    0.00012
       3569    55 -109.091489 -109.091082    0.000407   2.592    0.00009    0.00012
       3570    70 -109.091489 -109.091080    0.000410   2.592    0.00009    0.00012
       3571    54 -109.091489 -109.091084    0.000406   2.592    0.00009    0.00012
       3572    54 -109.091489 -109.091089    0.000400   2.592    0.00009    0.00012
       3573    69 -109.091489 -109.091086    0.000403   2.592    0.00009    0.00011
       3574    54 -109.091489 -109.091090    0.000400   2.592    0.00009    0.00011
       3575    70 -109.091489 -109.091094    0.000396   2.592    0.00009    0.00011
       3576    54 -109.091489 -109.091094    0.000395   2.592    0.00009    0.00011
       3577    65 -109.091489 -109.091098    0.000391   2.592    0.00009    0.00011
       3578    51 -109.091489 -109.091099    0.000391   2.592    0.00009    0.00011
       3579    55 -109.091489 -109.091106    0.000384   2.592    0.00009    0.00011
       3580    69 -109.091489 -109.091102    0.000387   2.592    0.00009    0.00011
       3581    54 -109.091489 -109.091106    0.000383   2.592    0.00009    0.00011
       3582    69 -109.091489 -109.091110    0.000380   2.592    0.00009    0.00011
       3583    54 -109.091489 -109.091110    0.000380   2.592    0.00009    0.00011
       3584    66 -109.091489 -109.091114    0.000376   2.592    0.00009    0.00011
       3585    52 -109.091489 -109.091114    0.000376   2.592    0.00009    0.00011
       3586    55 -109.091489 -109.091120    0.000369   2.592    0.00009    0.00011
       3587    69 -109.091489 -109.091115    0.000374   2.592    0.00009    0.00011
       3588    52 -109.091489 -109.091119    0.000370   2.592    0.00009    0.00011
       3589    55 -109.091489 -109.091123    0.000366   2.592    0.00009    0.00011
       3590    69 -109.091489 -109.091119    0.000370   2.592    0.00009    0.00011
       3591    54 -109.091489 -109.091123    0.000366   2.592    0.00009    0.00011
       3592    65 -109.091489 -109.091124    0.000365   2.592    0.00009    0.00011
       3593    55 -109.091489 -109.091123    0.000366   2.592    0.00009    0.00011
       3594    69 -109.091489 -109.091126    0.000363   2.592    0.00009    0.00011
       3595    54 -109.091489 -109.091124    0.000364   2.592    0.00009    0.00011
       3596    54 -109.091489 -109.091130    0.000359   2.592    0.00009    0.00011
       3597    69 -109.091489 -109.091124    0.000365   2.592    0.00009    0.00010
       3598    54 -109.091489 -109.091127    0.000362   2.592    0.00009    0.00010
       3599    70 -109.091489 -109.091127    0.000361   2.592    0.00009    0.00010
       3600    55 -109.091489 -109.091126    0.000363   2.592    0.00009    0.00010
       3601    66 -109.091489 -109.091132    0.000356   2.592    0.00009    0.00010
       3602    54 -109.091488 -109.091148    0.000340   2.592    0.00009    0.00010
       3603    67 -109.091488 -109.091150    0.000339   2.592    0.00009    0.00010
       3604    55 -109.091488 -109.091157    0.000332   2.592    0.00009    0.00010
       3605    70 -109.091488 -109.091158    0.000330   2.592    0.00009    0.00010
       3606    55 -109.091488 -109.091160    0.000328   2.592    0.00009    0.00010
       3607    66 -109.091488 -109.091160    0.000328   2.592    0.00009    0.00010
       3608    55 -109.091488 -109.091158    0.000329   2.592    0.00009    0.00010
       3609    67 -109.091487 -109.091155    0.000332   2.592    0.00009    0.00010
       3610    54 -109.091487 -109.091151    0.000337   2.592    0.00009    0.00010

        ==> Orbital Optimization <==

            Orbital Optimization converged in   1 iterations 
            Total energy change: -1.089262e-09
            Final gradient norm: 4.407010e-05


      v2RDM iterations converged!

      v2RDM total spin [S(S+1)]:             0.000001
    * v2RDM total energy:           -109.091487316773


 # Natural Orbital Occupation Numbers (alpha) #
 Irrep: 1
      1:  1.0000000
      2:  1.0000000
      3:  0.9910252
      4:  0.0000000
      5:  0.0000000
      6:  0.0000000
      7:  0.0000000

 Irrep: 2
      1:  0.0000000

 Irrep: 3
      1:  0.0302985
      2:  0.0000000
      3:  0.0000000

 Irrep: 4
      1:  0.0302981
      2:  0.0000000
      3:  0.0000000

 Irrep: 5
      1:  0.0000000

 Irrep: 6
      1:  1.0000000
      2:  1.0000000
      3:  0.0089885
      4:  0.0000000
      5:  0.0000000
      6:  0.0000000
      7:  0.0000000

 Irrep: 7
      1:  0.9696947
      2:  0.0000000
      3:  0.0000000

 Irrep: 8
      1:  0.9696951
      2:  0.0000000
      3:  0.0000000


 # Natural Orbital Occupation Numbers (beta) #
 Irrep: 1
      1:  1.0000000
      2:  1.0000000
      3:  0.9910251
      4:  0.0000000
      5:  0.0000000
      6:  0.0000000
      7:  0.0000000

 Irrep: 2
      1:  0.0000000

 Irrep: 3
      1:  0.0302985
      2:  0.0000000
      3:  0.0000000

 Irrep: 4
      1:  0.0302981
      2:  0.0000000
      3:  0.0000000

 Irrep: 5
      1:  0.0000000

 Irrep: 6
      1:  1.0000000
      2:  1.0000000
      3:  0.0089885
      4:  0.0000000
      5:  0.0000000
      6:  0.0000000
      7:  0.0000000

 Irrep: 7
      1:  0.9696946
      2:  0.0000000
      3:  0.0000000

 Irrep: 8
      1:  0.9696951
      2:  0.0000000
      3:  0.0000000


  ==> Iteration count <==

      Microiterations:                  243175
      Macroiterations:                    3611
      Orbital optimization steps:            8

  ==> Wall time <==

      Microiterations:                  376.43 s
      Macroiterations:                   32.81 s
      Orbital optimization:               0.16 s
      Total:                            420.15 s


*** tstop() called on wg-dhcp201d206d180.secure.wireless.fsu. at Mon May  9 12:01:56 2016
Module time:
	user time   =     419.92 seconds =       7.00 minutes
	system time =       0.26 seconds =       0.00 minutes
	total time  =        421 seconds =       7.02 minutes
Total time:
	user time   =     420.07 seconds =       7.00 minutes
	system time =       0.27 seconds =       0.00 minutes
	total time  =        421 seconds =       7.02 minutes
	SCF total energy..................................................PASSED
	v2RDM-CASSCF total energy.........................................PASSED

*** PSI4 exiting successfully. Buy a developer a beer!
