    -----------------------------------------------------------------------
          Psi4: An Open-Source Ab Initio Electronic Structure Package
                              Psi4 0.4.406 Driver

                          Git: Rev {master} 652792a dirty

    J. M. Turney, A. C. Simmonett, R. M. Parrish, E. G. Hohenstein,
    F. A. Evangelista, J. T. Fermann, B. J. Mintz, L. A. Burns, J. J. Wilke,
    M. L. Abrams, N. J. Russ, M. L. Leininger, C. L. Janssen, E. T. Seidl,
    W. D. Allen, H. F. Schaefer, R. A. King, E. F. Valeev, C. D. Sherrill,
    and T. D. Crawford, WIREs Comput. Mol. Sci. 2, 556-565 (2012)
    (doi: 10.1002/wcms.93)

                         Additional Contributions by
    A. E. DePrince, U. Bozkaya, A. Yu. Sokolov, D. G. A. Smith, R. Di Remigio,
    R. M. Richard, J. F. Gonthier, H. R. McAlexander, M. Saitow, and
    B. P. Pritchard
    -----------------------------------------------------------------------


    Psi4 started on: Mon May  9 10:06:56 2016

    Process ID:  49237
    PSI4DATADIR: /Users/deprince/psi4/install/debug/share/psi4
    Memory level set to 256.000 MB

  ==> Input File <==

--------------------------------------------------------------------------
#! cc-pvdz N2 (6,6) active space Test DQG

# job description:
print '        N2 / cc-pVDZ / DQG(6,6), scf_type = DF, rNN = 1.1 A'

sys.path.insert(0, '../../..')
import v2rdm_casscf

molecule n2 {
0 1
n
n 1 r
}

set {
  basis cc-pvdz
  scf_type df
  d_convergence      1e-10
  maxiter 500
  restricted_docc [ 2, 0, 0, 0, 0, 2, 0, 0 ]
  active          [ 1, 0, 1, 1, 0, 1, 1, 1 ]
}
set v2rdm_casscf {
  positivity dqg
  r_convergence  1e-4
  e_convergence  1e-4
  maxiter 20000
}

activate(n2)

n2.r     = 1.1
refscf   = -108.95348837831371 # TEST
refv2rdm = -109.094473284022   # TEST

energy('v2rdm-casscf')

compare_values(refscf, get_variable("SCF TOTAL ENERGY"), 8, "SCF total energy") # TEST
compare_values(refv2rdm, get_variable("CURRENT ENERGY"), 4, "v2RDM-CASSCF total energy") # TEST

--------------------------------------------------------------------------
/Users/deprince/chem/v2rdm_casscf/v2rdm_casscf.so loaded.
Setting geometry variable r to 1.100000

*** tstart() called on wg-dhcp201d206d180.secure.wireless.fsu.
*** at Mon May  9 10:06:57 2016


         ---------------------------------------------------------
                                   SCF
            by Justin Turney, Rob Parrish, and Andy Simmonett
                              RHF Reference
                        1 Threads,    256 MiB Core
         ---------------------------------------------------------

  ==> Geometry <==

    Molecular point group: d2h
    Full point group: D_inf_h

    Geometry (in Angstrom), charge = 0, multiplicity = 1:

       Center              X                  Y                   Z               Mass       
    ------------   -----------------  -----------------  -----------------  -----------------
           N          0.000000000000     0.000000000000    -0.550000000000    14.003074004780
           N          0.000000000000     0.000000000000     0.550000000000    14.003074004780

  Running in d2h symmetry.

  Rotational constants: A = ************  B =      1.98984  C =      1.98984 [cm^-1]
  Rotational constants: A = ************  B =  59653.84444  C =  59653.84444 [MHz]
  Nuclear repulsion =   23.572439291736362

  Charge       = 0
  Multiplicity = 1
  Electrons    = 14
  Nalpha       = 7
  Nbeta        = 7

  ==> Algorithm <==

  SCF Algorithm Type is DF.
  DIIS enabled.
  MOM disabled.
  Fractional occupation disabled.
  Guess Type is CORE.
  Energy threshold   = 1.00e-08
  Density threshold  = 1.00e-10
  Integral threshold = 0.00e+00

  ==> Primary Basis <==

  Basis Set: CC-PVDZ
    Number of shells: 12
    Number of basis function: 28
    Number of Cartesian functions: 30
    Spherical Harmonics?: true
    Max angular momentum: 2

  ==> Pre-Iterations <==

   -------------------------------------------------------
    Irrep   Nso     Nmo     Nalpha   Nbeta   Ndocc  Nsocc
   -------------------------------------------------------
     Ag         7       7       0       0       0       0
     B1g        1       1       0       0       0       0
     B2g        3       3       0       0       0       0
     B3g        3       3       0       0       0       0
     Au         1       1       0       0       0       0
     B1u        7       7       0       0       0       0
     B2u        3       3       0       0       0       0
     B3u        3       3       0       0       0       0
   -------------------------------------------------------
    Total      28      28       7       7       7       0
   -------------------------------------------------------

  ==> Integral Setup <==

  ==> DFJK: Density-Fitted J/K Matrices <==

    J tasked:                  Yes
    K tasked:                  Yes
    wK tasked:                  No
    OpenMP threads:              1
    Integrals threads:           1
    Memory (MB):               183
    Algorithm:                Core
    Integral Cache:           SAVE
    Schwarz Cutoff:          1E-12
    Fitting Condition:       1E-12

   => Auxiliary Basis Set <=

  Basis Set: 
    Number of shells: 48
    Number of basis function: 140
    Number of Cartesian functions: 162
    Spherical Harmonics?: true
    Max angular momentum: 3

  Minimum eigenvalue in the overlap matrix is 6.1906036234E-03.
  Using Symmetric Orthogonalization.
  SCF Guess: Core (One-Electron) Hamiltonian.

  ==> Iterations <==

                           Total Energy        Delta E     RMS |[F,P]|

    Occupation by irrep:
             Ag   B1g   B2g   B3g    Au   B1u   B2u   B3u 
    DOCC [     3,    0,    0,    0,    0,    2,    1,    1 ]

   @DF-RHF iter   1:   -99.92277299360826   -9.99228e+01   2.54521e-01 
   @DF-RHF iter   2:  -106.57776781959150   -6.65499e+00   1.86596e-01 DIIS
   @DF-RHF iter   3:  -108.86448416243199   -2.28672e+00   3.60110e-02 DIIS
   @DF-RHF iter   4:  -108.95029441476670   -8.58103e-02   5.38078e-03 DIIS
   @DF-RHF iter   5:  -108.95340133461461   -3.10692e-03   9.45212e-04 DIIS
   @DF-RHF iter   6:  -108.95348761700934   -8.62824e-05   8.63375e-05 DIIS
   @DF-RHF iter   7:  -108.95348836594563   -7.48936e-07   1.25814e-05 DIIS
   @DF-RHF iter   8:  -108.95348837812752   -1.21819e-08   1.54695e-06 DIIS
   @DF-RHF iter   9:  -108.95348837831280   -1.85281e-10   1.00773e-07 DIIS
   @DF-RHF iter  10:  -108.95348837831374   -9.37916e-13   8.49991e-09 DIIS
   @DF-RHF iter  11:  -108.95348837831371    2.84217e-14   7.60311e-10 DIIS
   @DF-RHF iter  12:  -108.95348837831368    2.84217e-14   6.48553e-11 DIIS

  ==> Post-Iterations <==

    Orbital Energies (a.u.)
    -----------------------

    Doubly Occupied:                                                      

       1Ag   -15.687294     1B1u  -15.683937     2Ag    -1.469609  
       2B1u   -0.774890     3Ag    -0.626042     1B2u   -0.607131  
       1B3u   -0.607131  

    Virtual:                                                              

       1B3g    0.174361     1B2g    0.174361     3B1u    0.593802  
       4Ag     0.821219     2B2u    0.873141     2B3u    0.873141  
       5Ag     0.992144     2B3g    1.050649     2B2g    1.050649  
       4B1u    1.140869     5B1u    1.640793     1B1g    1.759650  
       6Ag     1.759650     3B3u    1.880643     3B2u    1.880643  
       6B1u    2.297692     1Au     2.297692     7Ag     2.872203  
       3B2g    2.994434     3B3g    2.994434     7B1u    3.278797  

    Final Occupation by Irrep:
             Ag   B1g   B2g   B3g    Au   B1u   B2u   B3u 
    DOCC [     3,    0,    0,    0,    0,    2,    1,    1 ]

  Energy converged.

  @DF-RHF Final Energy:  -108.95348837831368

   => Energetics <=

    Nuclear Repulsion Energy =             23.5724392917363623
    One-Electron Energy =                -194.1397891674204175
    Two-Electron Energy =                  61.6138614973703369
    DFT Exchange-Correlation Energy =       0.0000000000000000
    Empirical Dispersion Energy =           0.0000000000000000
    PCM Polarization Energy =               0.0000000000000000
    EFP Energy =                            0.0000000000000000
    Total Energy =                       -108.9534883783137076


  Saving occupied orbitals to File 180.

*** tstop() called on wg-dhcp201d206d180.secure.wireless.fsu. at Mon May  9 10:06:57 2016
Module time:
	user time   =       0.22 seconds =       0.00 minutes
	system time =       0.01 seconds =       0.00 minutes
	total time  =          0 seconds =       0.00 minutes
Total time:
	user time   =       0.22 seconds =       0.00 minutes
	system time =       0.01 seconds =       0.00 minutes
	total time  =          0 seconds =       0.00 minutes


Properties will be evaluated at   0.000000,   0.000000,   0.000000 Bohr

Properties computed using the SCF density matrix

  Nuclear Dipole Moment: (a.u.)
     X:     0.0000      Y:     0.0000      Z:     0.0000

  Electronic Dipole Moment: (a.u.)
     X:     0.0000      Y:     0.0000      Z:     0.0000

  Dipole Moment: (a.u.)
     X:     0.0000      Y:     0.0000      Z:     0.0000     Total:     0.0000

  Dipole Moment: (Debye)
     X:     0.0000      Y:     0.0000      Z:     0.0000     Total:     0.0000


Reading options from the V2RDM_CASSCF block
Calling plugin v2rdm_casscf.so.



*** tstart() called on wg-dhcp201d206d180.secure.wireless.fsu.
*** at Mon May  9 10:06:57 2016



        ****************************************************
        *                                                  *
        *    v2RDM-CASSCF                                  *
        *                                                  *
        *    A variational 2-RDM-driven approach to the    *
        *    active space self-consistent field method     *
        *                                                  *
        ****************************************************


        The following papers should be cited when using v2RDM-CASSCF:

        J. Fosso-Tande, D. R. Nascimento, and A. E. DePrince III,
        Mol. Phys. 114, 423-430 (2015).

            URL: http://dx.doi.org/10.1080/00268976.2015.1078008

        J. Fosso-Tande, T.-S. Nguyen, G. Gidofalvi, and
        A. E. DePrince III, J. Chem. Theory Comput. accepted (2016).

            URL: http://dx.doi.org/10.1021/acs.jctc.6b00190



  ==> Convergence parameters <==

        r_convergence:                      1.000e-04
        e_convergence:                      1.000e-04
        cg_convergence:                     1.000e-05
        maxiter:                                20000
        cg_maxiter:                             10000

  ==> Active space details <==

        Number of frozen core orbitals:             0
        Number of restricted occupied orbitals:     4
        Number of active occupied orbitals:         3
        Number of active virtual orbitals:          3
        Number of restricted virtual orbitals:     18
        Number of frozen virtual orbitals:          0

        Irrep:             Ag, B1g, B2g, B3g,  Au, B1u, B2u, B3u 
 
        frozen_docc     [   0,   0,   0,   0,   0,   0,   0,   0 ]
        restricted_docc [   2,   0,   0,   0,   0,   2,   0,   0 ]
        active          [   1,   0,   1,   1,   0,   1,   1,   1 ]
        restricted_uocc [   4,   1,   2,   2,   1,   4,   2,   2 ]
        frozen_uocc     [   0,   0,   0,   0,   0,   0,   0,   0 ]

  ==> Orbital optimization parameters <==

        1-step algorithm:                       1
        g_convergence:                  1.000e-04
        e_convergence:                  1.000e-08
        maximum iterations:                    20
        frequency:                            500
        active-active rotations:                0
        exact diagonal Hessian:                 0
        number of DIIS vectors:                 0
        print iteration info:                   0

  ==> Memory requirements <==

        D2:                          0.00 mb
        Q2:                          0.00 mb
        G2:                          0.01 mb

        Total number of variables:           1668
        Total number of constraints:         1555
        Total memory requirements:        0.54 mb

    ==> Transform three-electron integrals <==


        Time for integral transformation:     0.13 s

    Molecular point group: d2h
    Full point group: D_inf_h

    Geometry (in Angstrom), charge = 0, multiplicity = 1:

       Center              X                  Y                   Z               Mass       
    ------------   -----------------  -----------------  -----------------  -----------------
           N          0.000000000000     0.000000000000    -0.550000000000    14.003074004780
           N          0.000000000000     0.000000000000     0.550000000000    14.003074004780

  -AO BASIS SET INFORMATION:
    Name                   = CC-PVDZ
    Total number of shells = 12
    Number of primitives   = 44
    Number of AO           = 30
    Number of SO           = 28
    Maximum AM             = 2
    Spherical Harmonics    = TRUE

  -Contraction Scheme:
    Atom   Type   All Primitives // Shells:
   ------ ------ --------------------------
       1     N     17s 4p 1d // 3s 2p 1d 
       2     N     17s 4p 1d // 3s 2p 1d 

  ==> AO Basis Functions <==

    [ CC-PVDZ ]
    spherical
    ****
    N   1
    S   8 1.00
                      9046.00000000           0.00070000
                      1357.00000000           0.00538900
                       309.30000000           0.02740600
                        87.73000000           0.10320700
                        28.56000000           0.27872300
                        10.21000000           0.44854000
                         3.83800000           0.27823800
                         0.74660000           0.01544000
    S   8 1.00
                      9046.00000000          -0.00015300
                      1357.00000000          -0.00120800
                       309.30000000          -0.00599200
                        87.73000000          -0.02454400
                        28.56000000          -0.06745900
                        10.21000000          -0.15807800
                         3.83800000          -0.12183100
                         0.74660000           0.54900300
    S   1 1.00
                         0.22480000           1.00000000
    P   3 1.00
                        13.55000000           0.03991900
                         2.91700000           0.21716900
                         0.79730000           0.51031900
    P   1 1.00
                         0.21850000           1.00000000
    D   1 1.00
                         0.81700000           1.00000000
    ****


    reference energy:        -108.953488378314
    frozen core energy:      -121.129881000545
    initial 2-RDM energy:    -100.714895657201

      oiter iiter        E(p)        E(d)      E gap)      mu     eps(p)     eps(d)
          0    83 -105.410412  103.821430  209.231842   1.000   61.80445   58.54265
          1    44  -98.459016 -346.140037  247.681021   1.000   10.16100   32.47555
          2    53 -116.921145 -162.464891   45.543746   1.000   13.97724    7.28412
          3    43 -107.451079 -137.550286   30.099207   1.000    7.70532    3.52152
          4    42 -110.410714 -120.938153   10.527439   1.000    6.54074    3.09421
          5    42 -107.029794 -111.644868    4.615074   1.000    3.39568    2.60121
          6    41 -108.214997 -105.921981    2.293016   1.000    2.57211    2.28857
          7    38 -107.080684 -104.658794    2.421890   1.000    1.27314    2.44653
          8    42 -107.898449 -107.514271    0.384177   1.000    0.72317    1.49132
          9    42 -107.602360 -106.863121    0.739239   1.000    0.44392    0.88431
         10    38 -107.925798 -107.490569    0.435229   1.000    0.28181    0.57508
         11    38 -107.834690 -107.215172    0.619519   1.000    0.19074    0.41550
         12    38 -107.941228 -107.496443    0.444785   1.000    0.22967    0.32717
         13    38 -107.925886 -107.533098    0.392788   1.000    0.24344    0.26472
         14    37 -107.995672 -107.740129    0.255543   1.000    0.16082    0.24400
         15    34 -108.026057 -107.690822    0.335236   1.000    0.09364    0.23642
         16    38 -108.081807 -107.650960    0.430847   1.000    0.10271    0.22775
         17    38 -108.123637 -107.584244    0.539394   1.000    0.15240    0.21872
         18    35 -108.173792 -107.600778    0.573014   1.000    0.18519    0.20643
         19    32 -108.214829 -107.689598    0.525231   1.000    0.17411    0.19563
         20    32 -108.258843 -107.811812    0.447032   1.000    0.11623    0.19658
         21    33 -108.298661 -107.848569    0.450091   1.000    0.07589    0.19754
         22    42 -108.334752 -107.856205    0.478547   1.000    0.09844    0.19300
         23    38 -108.365249 -107.824469    0.540780   1.000    0.13086    0.18760
         24    34 -108.388074 -107.813766    0.574309   1.000    0.13926    0.18218
         25    30 -108.414440 -107.831217    0.583223   1.000    0.13469    0.17741
         26    33 -108.443158 -107.870242    0.572916   1.000    0.11146    0.17613
         27    33 -108.469325 -107.900090    0.569235   1.000    0.08124    0.17443
         28    34 -108.490618 -107.944984    0.545634   1.000    0.07194    0.16694
         29    38 -108.511525 -108.017786    0.493739   1.000    0.07380    0.15570
         30    38 -108.532039 -108.105305    0.426734   1.000    0.06759    0.14758
         31    40 -108.551460 -108.171165    0.380295   1.000    0.05389    0.14359
         32    41 -108.566964 -108.191139    0.375824   1.000    0.05549    0.13720
         33    42 -108.578403 -108.194544    0.383858   1.000    0.06214    0.12845
         34    39 -108.589086 -108.214599    0.374487   1.000    0.06178    0.12161
         35    39 -108.598483 -108.252685    0.345798   1.000    0.05232    0.11814
         36    39 -108.606654 -108.295355    0.311299   1.000    0.03715    0.11640
         37    42 -108.616295 -108.325842    0.290453   1.000    0.03062    0.11504
         38    41 -108.627427 -108.346381    0.281046   1.000    0.02878    0.11286
         39    38 -108.637874 -108.346479    0.291394   1.000    0.03040    0.10991
         40    42 -108.647733 -108.328594    0.319139   1.000    0.03240    0.10667
         41    42 -108.656860 -108.305815    0.351045   1.000    0.03348    0.10368
         42    41 -108.665290 -108.292893    0.372397   1.000    0.03452    0.10111
         43    41 -108.672937 -108.296426    0.376511   1.000    0.03578    0.09912
         44    41 -108.679568 -108.316740    0.362828   1.000    0.03642    0.09770
         45    41 -108.685867 -108.346002    0.339865   1.000    0.03463    0.09696
         46    41 -108.692203 -108.371724    0.320479   1.000    0.03336    0.09660
         47    38 -108.701335 -108.386662    0.314673   1.000    0.03113    0.09591
         48    39 -108.712786 -108.388123    0.324663   1.000    0.02888    0.09452
         49    39 -108.724442 -108.385214    0.339228   1.000    0.02776    0.09253
         50    39 -108.733230 -108.380942    0.352288   1.000    0.02823    0.09113
         51    39 -108.739622 -108.384065    0.355557   1.000    0.02569    0.09199
         52    42 -108.748569 -108.414248    0.334321   1.000    0.02474    0.09014
         53    37 -108.756548 -108.415743    0.340805   1.000    0.02661    0.08921
         54    38 -108.764665 -108.411176    0.353489   1.000    0.02864    0.08812
         55    34 -108.770878 -108.398666    0.372212   1.000    0.02418    0.08755
         56    37 -108.776716 -108.394353    0.382363   1.000    0.01901    0.08727
         57    39 -108.782994 -108.397248    0.385746   1.000    0.01632    0.08700
         58    40 -108.791671 -108.404119    0.387552   1.000    0.01610    0.08668
         59    39 -108.799005 -108.409990    0.389016   1.000    0.01556    0.08642
         60    42 -108.806326 -108.415611    0.390715   1.000    0.01451    0.08628
         61    40 -108.813394 -108.421221    0.392173   1.000    0.01322    0.08624
         62    42 -108.821061 -108.423660    0.397401   1.000    0.01220    0.08622
         63    38 -108.828197 -108.422951    0.405246   1.000    0.01137    0.08615
         64    39 -108.835351 -108.421182    0.414169   1.000    0.01074    0.08602
         65    37 -108.842172 -108.419279    0.422893   1.000    0.00988    0.08589
         66    41 -108.848855 -108.417699    0.431156   1.000    0.00911    0.08577
         67    39 -108.855503 -108.416761    0.438742   1.000    0.00883    0.08563
         68    39 -108.862121 -108.416335    0.445786   1.000    0.00930    0.08543
         69    39 -108.868922 -108.416038    0.452884   1.000    0.01019    0.08519
         70    39 -108.875892 -108.415807    0.460085   1.000    0.01118    0.08490
         71    39 -108.882505 -108.416925    0.465579   1.000    0.01208    0.08456
         72    41 -108.889748 -108.419231    0.470518   1.000    0.01259    0.08425
         73    42 -108.897192 -108.423712    0.473480   1.000    0.01353    0.08386
         74    42 -108.904630 -108.426311    0.478319   1.000    0.01462    0.08348
         75    39 -108.910647 -108.437806    0.472841   1.000    0.01417    0.08293
         76    42 -108.918199 -108.448062    0.470137   1.000    0.01567    0.08242
         77    40 -108.925915 -108.456195    0.469720   1.000    0.01838    0.08172
         78    39 -108.933400 -108.466023    0.467377   1.000    0.02235    0.08050
         79    38 -108.937014 -108.482173    0.454841   1.000    0.02012    0.07947
         80    39 -108.943209 -108.502562    0.440646   1.000    0.02159    0.07786
         81    38 -108.948348 -108.525889    0.422459   1.000    0.02291    0.07583
         82    38 -108.953452 -108.547996    0.405455   1.000    0.02505    0.07346
         83    37 -108.955579 -108.579862    0.375717   1.000    0.03371    0.06874
         84    37 -108.958100 -108.639317    0.318783   1.000    0.03589    0.06427
         85    38 -108.959040 -108.685619    0.273421   1.000    0.03804    0.06248
         86    33 -108.960488 -108.725767    0.234721   1.000    0.03846    0.06088
         87    38 -108.962603 -108.763160    0.199443   1.000    0.03295    0.05959
         88    38 -108.966682 -108.773946    0.192736   1.000    0.02654    0.05846
         89    38 -108.970596 -108.764090    0.206506   1.000    0.02218    0.05784
         90    42 -108.974453 -108.749567    0.224886   1.000    0.01884    0.05713
         91    42 -108.977711 -108.745740    0.231971   1.000    0.01620    0.05573
         92    42 -108.980514 -108.745803    0.234711   1.000    0.01572    0.05396
         93    42 -108.982545 -108.754978    0.227566   1.000    0.01516    0.05226
         94    38 -108.983746 -108.750571    0.233174   1.000    0.01430    0.05129
         95    42 -108.985489 -108.759745    0.225744   1.000    0.01333    0.05030
         96    38 -108.987380 -108.759923    0.227456   1.000    0.01185    0.04967
         97    42 -108.989738 -108.765777    0.223961   1.000    0.01002    0.04904
         98    41 -108.992651 -108.766356    0.226295   1.000    0.00851    0.04835
         99    42 -108.995405 -108.767715    0.227690   1.000    0.00753    0.04766
        100    41 -108.998074 -108.769692    0.228382   1.000    0.00679    0.04706
        101    42 -109.000900 -108.776559    0.224341   1.000    0.00685    0.04638
        102    42 -109.003300 -108.778504    0.224796   1.000    0.00752    0.04574
        103    38 -109.005675 -108.783217    0.222458   1.000    0.00808    0.04514
        104    37 -109.007818 -108.785949    0.221869   1.000    0.00802    0.04461
        105    38 -109.009781 -108.789875    0.219906   1.000    0.00788    0.04407
        106    41 -109.011676 -108.796205    0.215471   1.000    0.00828    0.04339
        107    41 -109.013300 -108.804814    0.208486   1.000    0.00905    0.04257
        108    41 -109.015024 -108.814672    0.200352   1.000    0.01013    0.04162
        109    38 -109.016721 -108.825029    0.191693   1.000    0.01124    0.04058
        110    38 -109.018308 -108.834763    0.183545   1.000    0.01195    0.03954
        111    33 -109.019864 -108.844906    0.174958   1.000    0.01246    0.03854
        112    33 -109.021386 -108.854373    0.167012   1.000    0.01290    0.03751
        113    34 -109.022975 -108.862810    0.160165   1.000    0.01352    0.03637
        114    33 -109.024329 -108.869892    0.154436   1.000    0.01428    0.03513
        115    35 -109.025658 -108.876897    0.148760   1.000    0.01517    0.03380
        116    35 -109.026817 -108.883984    0.142833   1.000    0.01612    0.03238
        117    37 -109.027710 -108.891959    0.135751   1.000    0.01703    0.03091
        118    37 -109.028240 -108.899753    0.128486   1.000    0.01800    0.02942
        119    35 -109.029215 -108.907199    0.122015   1.000    0.01883    0.02787
        120    33 -109.029724 -108.912441    0.117282   1.000    0.01961    0.02631
        121    33 -109.030363 -108.917184    0.113179   1.000    0.02011    0.02478
        122    35 -109.030973 -108.921438    0.109535   1.000    0.02040    0.02332
        123    34 -109.031580 -108.925990    0.105591   1.000    0.02043    0.02201
        124    33 -109.032008 -108.930453    0.101555   1.000    0.02033    0.02088
        125    34 -109.032536 -108.934971    0.097565   1.000    0.02023    0.01991
        126    33 -109.032759 -108.939719    0.093040   1.000    0.01998    0.01908
        127    35 -109.032983 -108.944446    0.088538   1.000    0.01962    0.01837
        128    35 -109.032931 -108.949044    0.083887   1.000    0.01899    0.01775
        129    33 -109.032645 -108.954127    0.078519   1.000    0.01822    0.01720
        130    34 -109.032151 -108.959644    0.072507   1.000    0.01711    0.01668
        131    33 -109.031439 -108.965635    0.065804   1.000    0.01572    0.01611
        132    34 -109.030730 -108.972835    0.057895   1.000    0.01428    0.01550
        133    33 -109.029901 -108.979587    0.050314   1.000    0.01274    0.01482
        134    32 -109.028376 -108.985870    0.042506   1.000    0.01069    0.01429
        135    32 -109.027986 -108.994356    0.033630   1.000    0.00979    0.01339
        136    32 -109.027336 -108.998316    0.029020   1.000    0.00858    0.01255
        137    32 -109.027172 -109.001788    0.025384   1.000    0.00761    0.01170
        138    32 -109.026902 -109.002698    0.024203   1.000    0.00669    0.01089
        139    35 -109.026857 -109.003918    0.022939   1.000    0.00599    0.01014
        140    34 -109.026762 -109.004083    0.022679   1.000    0.00543    0.00946
        141    35 -109.026564 -109.004397    0.022168   1.000    0.00505    0.00883
        142    35 -109.026387 -109.005338    0.021049   1.000    0.00477    0.00819
        143    35 -109.026207 -109.006108    0.020099   1.000    0.00457    0.00757
        144    33 -109.026039 -109.006762    0.019277   1.000    0.00445    0.00698
        145    35 -109.025904 -109.007235    0.018669   1.000    0.00436    0.00645
        146    31 -109.025808 -109.007445    0.018362   1.000    0.00429    0.00598
        147    38 -109.025760 -109.007318    0.018443   1.000    0.00423    0.00556
        148    37 -109.025692 -109.007301    0.018391   1.000    0.00419    0.00517
        149    38 -109.025698 -109.007291    0.018407   1.000    0.00417    0.00481
        150    38 -109.025614 -109.007633    0.017981   1.000    0.00405    0.00450
        151    39 -109.025315 -109.008054    0.017262   1.000    0.00407    0.00425
        152    39 -109.025524 -109.008799    0.016725   1.000    0.00393    0.00400
        153    38 -109.025445 -109.008441    0.017003   1.000    0.00396    0.00381
        154    39 -109.025574 -109.008839    0.016735   1.000    0.00388    0.00363
        155    38 -109.025646 -109.009046    0.016600   1.000    0.00386    0.00350
        156    38 -109.025802 -109.009290    0.016512   1.000    0.00382    0.00340
        157    39 -109.025928 -109.009196    0.016732   1.000    0.00384    0.00331
        158    39 -109.026062 -109.009129    0.016933   1.000    0.00388    0.00321
        159    39 -109.026163 -109.009039    0.017124   1.000    0.00392    0.00311
        160    39 -109.026252 -109.009197    0.017055   1.000    0.00397    0.00304
        161    39 -109.026198 -109.009995    0.016203   1.000    0.00379    0.00298
        162    39 -109.026025 -109.011360    0.014665   1.000    0.00348    0.00320
        163    38 -109.026133 -109.014739    0.011394   1.000    0.00329    0.00308
        164    38 -109.026024 -109.016061    0.009963   1.000    0.00333    0.00289
        165    38 -109.026035 -109.018530    0.007505   1.000    0.00333    0.00261
        166    38 -109.025994 -109.019795    0.006200   1.000    0.00329    0.00234
        167    38 -109.025979 -109.021014    0.004965   1.000    0.00320    0.00214
        168    38 -109.025914 -109.021450    0.004464   1.000    0.00309    0.00205
        169    38 -109.025830 -109.021753    0.004077   1.000    0.00299    0.00203
        170    41 -109.025715 -109.021845    0.003870   1.000    0.00290    0.00201
        171    42 -109.025602 -109.022016    0.003586   1.000    0.00283    0.00198
        172    42 -109.025494 -109.022366    0.003128   1.000    0.00279    0.00194
        173    42 -109.025407 -109.022918    0.002489   1.000    0.00276    0.00189
        174    42 -109.025341 -109.023664    0.001678   1.000    0.00273    0.00185
        175    42 -109.025289 -109.024552    0.000737   1.000    0.00268    0.00180
        176    42 -109.025248 -109.025391    0.000143   1.000    0.00263    0.00175
        177    43 -109.025207 -109.026073    0.000866   1.000    0.00258    0.00167
        178    43 -109.025167 -109.026540    0.001373   1.000    0.00254    0.00156
        179    48 -109.025111 -109.026816    0.001705   1.000    0.00252    0.00143
        180    48 -109.025052 -109.026922    0.001870   1.000    0.00251    0.00129
        181    48 -109.024983 -109.026870    0.001886   1.000    0.00251    0.00114
        182    48 -109.024911 -109.026705    0.001794   1.000    0.00250    0.00101
        183    48 -109.024837 -109.026428    0.001591   1.000    0.00249    0.00090
        184    48 -109.024772 -109.026055    0.001283   1.000    0.00247    0.00081
        185    48 -109.024715 -109.025578    0.000863   1.000    0.00235    0.00085
        186    48 -109.024742 -109.025253    0.000511   1.000    0.00219    0.00085
        187    48 -109.024788 -109.024622    0.000166   1.000    0.00213    0.00085
        188    48 -109.024821 -109.023825    0.000996   1.000    0.00209    0.00073
        189    53 -109.024808 -109.022927    0.001881   1.000    0.00205    0.00075
        190    48 -109.024801 -109.022227    0.002574   1.000    0.00202    0.00080
        191    48 -109.024814 -109.021625    0.003189   1.000    0.00201    0.00084
        192    48 -109.024860 -109.021060    0.003800   1.000    0.00200    0.00088
        193    48 -109.024922 -109.020520    0.004401   1.000    0.00198    0.00091
        194    48 -109.024994 -109.020053    0.004941   1.000    0.00197    0.00093
        195    48 -109.025065 -109.019729    0.005336   1.000    0.00195    0.00094
        196    48 -109.025134 -109.019593    0.005542   1.000    0.00194    0.00093
        197    47 -109.025197 -109.019649    0.005548   1.000    0.00193    0.00092
        198    48 -109.025251 -109.019872    0.005379   1.000    0.00193    0.00090
        199    48 -109.025301 -109.020222    0.005079   1.000    0.00194    0.00087
        200    48 -109.025337 -109.020661    0.004676   1.000    0.00194    0.00084
        201    50 -109.025368 -109.021164    0.004204   1.000    0.00194    0.00080
        202    48 -109.025390 -109.021700    0.003690   1.000    0.00194    0.00077
        203    47 -109.025405 -109.022262    0.003143   1.000    0.00194    0.00074
        204    48 -109.025412 -109.022822    0.002590   1.000    0.00193    0.00072
        205    50 -109.025411 -109.023372    0.002039   1.000    0.00191    0.00071
        206    49 -109.025400 -109.023887    0.001513   1.000    0.00190    0.00071
        207    48 -109.025380 -109.024365    0.001015   1.000    0.00188    0.00072
        208    48 -109.025354 -109.024785    0.000568   1.000    0.00186    0.00074
        209    49 -109.025321 -109.025147    0.000174   1.000    0.00184    0.00075
        210    48 -109.025284 -109.025443    0.000160   1.000    0.00182    0.00077
        211    49 -109.025248 -109.025679    0.000432   1.000    0.00180    0.00079
        212    48 -109.025204 -109.025856    0.000651   1.000    0.00178    0.00080
        213    48 -109.025168 -109.025983    0.000815   1.000    0.00176    0.00081
        214    48 -109.025129 -109.026063    0.000934   1.000    0.00174    0.00082
        215    48 -109.025094 -109.026102    0.001008   1.000    0.00173    0.00082
        216    48 -109.025061 -109.026104    0.001043   1.000    0.00172    0.00081
        217    48 -109.025030 -109.026071    0.001041   1.000    0.00171    0.00081
        218    48 -109.025006 -109.026007    0.001001   1.000    0.00170    0.00079
        219    48 -109.024982 -109.025911    0.000929   1.000    0.00169    0.00078
        220    48 -109.024962 -109.025790    0.000827   1.000    0.00168    0.00077
        221    48 -109.024948 -109.025645    0.000697   1.000    0.00167    0.00075
        222    48 -109.024931 -109.025478    0.000547   1.000    0.00166    0.00074
        223    48 -109.024923 -109.025297    0.000374   1.000    0.00165    0.00073
        224    48 -109.024914 -109.025102    0.000188   1.000    0.00165    0.00073
        225    48 -109.024911 -109.024898    0.000013   1.000    0.00164    0.00073
        226    47 -109.024908 -109.024689    0.000219   1.000    0.00163    0.00073
        227    48 -109.024911 -109.024482    0.000429   1.000    0.00161    0.00074
        228    49 -109.024916 -109.024279    0.000637   1.000    0.00160    0.00074
        229    48 -109.024923 -109.024086    0.000837   1.000    0.00159    0.00075
        230    48 -109.024933 -109.023910    0.001023   1.000    0.00158    0.00076
        231    48 -109.024946 -109.023754    0.001192   1.000    0.00157    0.00076
        232    48 -109.024959 -109.023651    0.001309   1.000    0.00154    0.00088
        233    48 -109.024998 -109.023914    0.001084   1.000    0.00149    0.00084
        234    48 -109.024997 -109.023819    0.001178   1.000    0.00148    0.00082
        235    48 -109.025006 -109.023921    0.001086   1.000    0.00147    0.00081
        236    48 -109.025009 -109.023879    0.001130   1.000    0.00146    0.00080
        237    48 -109.025017 -109.023907    0.001110   1.000    0.00145    0.00080
        238    48 -109.025020 -109.023897    0.001123   1.000    0.00145    0.00078
        239    48 -109.025022 -109.023928    0.001095   1.000    0.00144    0.00077
        240    48 -109.025024 -109.023956    0.001067   1.000    0.00144    0.00076
        241    48 -109.025022 -109.024003    0.001019   1.000    0.00143    0.00075
        242    48 -109.025025 -109.024054    0.000971   1.000    0.00143    0.00075
        243    48 -109.025025 -109.024113    0.000912   1.000    0.00141    0.00074
        244    49 -109.025027 -109.024235    0.000793   1.000    0.00141    0.00079
        245    48 -109.025029 -109.024534    0.000495   1.000    0.00141    0.00078
        246    43 -109.025019 -109.024559    0.000460   1.000    0.00140    0.00078
        247    43 -109.025010 -109.024829    0.000181   1.000    0.00140    0.00078
        248    43 -109.025007 -109.025063    0.000056   1.000    0.00138    0.00085
        249    40 -109.025018 -109.025699    0.000681   1.000    0.00135    0.00081
        250    43 -109.025012 -109.026075    0.001063   1.000    0.00135    0.00079
        251    40 -109.024988 -109.026515    0.001528   1.000    0.00136    0.00076
        252    42 -109.024955 -109.026739    0.001784   1.000    0.00137    0.00073
        253    40 -109.024914 -109.026888    0.001975   1.000    0.00138    0.00071
        254    42 -109.024866 -109.026854    0.001988   1.000    0.00139    0.00069
        255    40 -109.024821 -109.026748    0.001927   1.000    0.00137    0.00068
        256    42 -109.024783 -109.026655    0.001871   1.000    0.00137    0.00070
        257    40 -109.024760 -109.026654    0.001894   1.000    0.00136    0.00067
        258    40 -109.024717 -109.026378    0.001661   1.000    0.00136    0.00065
        259    40 -109.024688 -109.026161    0.001473   1.000    0.00136    0.00064
        260    40 -109.024665 -109.025818    0.001153   1.000    0.00136    0.00062
        261    42 -109.024653 -109.025504    0.000851   1.000    0.00135    0.00060
        262    43 -109.024649 -109.025150    0.000501   1.000    0.00134    0.00057
        263    43 -109.024648 -109.024841    0.000193   1.000    0.00133    0.00055
        264    48 -109.024653 -109.024557    0.000096   1.000    0.00131    0.00053
        265    49 -109.024664 -109.024309    0.000354   1.000    0.00128    0.00051
        266    50 -109.024678 -109.024118    0.000560   1.000    0.00125    0.00050
        267    49 -109.024693 -109.023969    0.000724   1.000    0.00122    0.00050
        268    49 -109.024712 -109.023874    0.000838   1.000    0.00119    0.00050
        269    49 -109.024728 -109.023819    0.000909   1.000    0.00116    0.00050
        270    48 -109.024748 -109.023805    0.000944   1.000    0.00113    0.00050
        271    48 -109.024765 -109.023822    0.000943   1.000    0.00111    0.00049
        272    48 -109.024782 -109.023870    0.000912   1.000    0.00109    0.00048
        273    43 -109.024798 -109.023935    0.000862   1.000    0.00108    0.00046
        274    43 -109.024810 -109.024039    0.000772   1.000    0.00107    0.00044
        275    43 -109.024821 -109.024149    0.000672   1.000    0.00106    0.00042
        276    43 -109.024828 -109.024280    0.000549   1.000    0.00105    0.00040
        277    43 -109.024833 -109.024415    0.000418   1.000    0.00105    0.00038
        278    43 -109.024833 -109.024555    0.000278   1.000    0.00103    0.00038
        279    43 -109.024833 -109.024758    0.000076   1.000    0.00102    0.00043
        280    43 -109.024838 -109.025105    0.000267   1.000    0.00101    0.00042
        281    43 -109.024828 -109.025275    0.000448   1.000    0.00101    0.00041
        282    43 -109.024814 -109.025501    0.000687   1.000    0.00101    0.00040
        283    48 -109.024796 -109.025621    0.000826   1.000    0.00101    0.00039
        284    43 -109.024778 -109.025693    0.000915   1.000    0.00102    0.00038
        285    48 -109.024755 -109.025719    0.000964   1.000    0.00102    0.00037
        286    43 -109.024736 -109.025665    0.000929   1.000    0.00102    0.00036
        287    44 -109.024715 -109.025613    0.000898   1.000    0.00102    0.00034
        288    44 -109.024698 -109.025518    0.000821   1.000    0.00102    0.00033
        289    49 -109.024680 -109.025437    0.000757   1.000    0.00102    0.00031
        290    49 -109.024668 -109.025325    0.000657   1.000    0.00101    0.00030
        291    49 -109.024658 -109.025227    0.000569   1.000    0.00100    0.00029
        292    49 -109.024650 -109.025110    0.000460   1.000    0.00099    0.00029
        293    49 -109.024645 -109.025002    0.000356   1.000    0.00098    0.00028
        294    50 -109.024643 -109.024893    0.000251   1.000    0.00096    0.00028
        295    49 -109.024644 -109.024802    0.000158   1.000    0.00095    0.00027
        296    50 -109.024644 -109.024727    0.000083   1.000    0.00093    0.00027
        297    49 -109.024647 -109.024676    0.000029   1.000    0.00092    0.00026
        298    49 -109.024649 -109.024645    0.000003   1.000    0.00091    0.00025
        299    49 -109.024652 -109.024635    0.000017   1.000    0.00090    0.00024
        300    49 -109.024654 -109.024638    0.000016   1.000    0.00089    0.00023
        301    49 -109.024658 -109.024651    0.000006   1.000    0.00088    0.00022
        302    49 -109.024659 -109.024669    0.000010   1.000    0.00087    0.00022
        303    49 -109.024662 -109.024689    0.000027   1.000    0.00086    0.00021
        304    49 -109.024663 -109.024706    0.000044   1.000    0.00085    0.00021
        305    50 -109.024663 -109.024721    0.000058   1.000    0.00084    0.00021
        306    49 -109.024663 -109.024731    0.000068   1.000    0.00083    0.00020
        307    50 -109.024662 -109.024736    0.000073   1.000    0.00083    0.00020
        308    49 -109.024662 -109.024736    0.000074   1.000    0.00082    0.00020
        309    49 -109.024660 -109.024731    0.000071   1.000    0.00082    0.00019
        310    49 -109.024659 -109.024723    0.000064   1.000    0.00081    0.00018
        311    55 -109.024657 -109.024711    0.000053   1.000    0.00081    0.00017
        312    49 -109.024655 -109.024705    0.000050   1.000    0.00080    0.00017
        313    50 -109.024654 -109.024692    0.000038   1.000    0.00080    0.00016
        314    55 -109.024651 -109.024685    0.000033   1.000    0.00079    0.00016
        315    49 -109.024650 -109.024683    0.000033   1.000    0.00079    0.00015
        316    56 -109.024648 -109.024677    0.000029   1.000    0.00078    0.00015
        317    56 -109.024646 -109.024684    0.000038   1.000    0.00078    0.00015
        318    56 -109.024644 -109.024688    0.000044   1.000    0.00077    0.00015
        319    50 -109.024641 -109.024702    0.000061   1.000    0.00077    0.00014
        320    49 -109.024639 -109.024713    0.000074   1.000    0.00076    0.00014
        321    49 -109.024636 -109.024730    0.000094   1.000    0.00076    0.00014
        322    49 -109.024633 -109.024747    0.000114   1.000    0.00075    0.00013
        323    49 -109.024630 -109.024765    0.000135   1.000    0.00075    0.00013
        324    49 -109.024626 -109.024783    0.000156   1.000    0.00074    0.00012
        325    50 -109.024623 -109.024799    0.000176   1.000    0.00074    0.00012
        326    49 -109.024619 -109.024813    0.000193   1.000    0.00074    0.00011
        327    55 -109.024615 -109.024822    0.000207   1.000    0.00073    0.00011
        328    49 -109.024612 -109.024830    0.000218   1.000    0.00073    0.00011
        329    55 -109.024608 -109.024830    0.000222   1.000    0.00072    0.00011
        330    49 -109.024604 -109.024829    0.000225   1.000    0.00072    0.00011
        331    56 -109.024601 -109.024819    0.000218   1.000    0.00071    0.00011
        332    49 -109.024598 -109.024809    0.000212   1.000    0.00071    0.00011
        333    56 -109.024595 -109.024790    0.000195   1.000    0.00070    0.00011
        334    55 -109.024593 -109.024773    0.000180   1.000    0.00070    0.00010
        335    55 -109.024591 -109.024749    0.000158   1.000    0.00070    0.00010
        336    55 -109.024589 -109.024726    0.000137   1.000    0.00069    0.00010
        337    56 -109.024588 -109.024701    0.000113   1.000    0.00069    0.00010
        338    56 -109.024587 -109.024678    0.000091   1.000    0.00068    0.00009
        339    56 -109.024587 -109.024655    0.000069   1.000    0.00067    0.00009
        340    56 -109.024586 -109.024636    0.000049   1.000    0.00067    0.00009
        341    55 -109.024587 -109.024619    0.000032   1.000    0.00066    0.00009
        342    55 -109.024587 -109.024606    0.000020   1.000    0.00066    0.00009
        343    56 -109.024587 -109.024598    0.000011   1.000    0.00065    0.00009
        344    55 -109.024587 -109.024594    0.000006   1.000    0.00065    0.00009
        345    55 -109.024587 -109.024594    0.000006   1.000    0.00065    0.00009
        346    55 -109.024588 -109.024597    0.000010   1.000    0.00064    0.00009
        347    55 -109.024587 -109.024605    0.000018   1.000    0.00064    0.00008
        348    55 -109.024587 -109.024614    0.000027   1.000    0.00064    0.00008
        349    56 -109.024586 -109.024626    0.000040   1.000    0.00063    0.00008
        350    55 -109.024585 -109.024639    0.000054   1.000    0.00063    0.00008
        351    56 -109.024583 -109.024651    0.000068   1.000    0.00063    0.00008
        352    56 -109.024582 -109.024663    0.000081   1.000    0.00062    0.00008
        353    55 -109.024580 -109.024674    0.000094   1.000    0.00062    0.00009
        354    55 -109.024578 -109.024682    0.000104   1.000    0.00062    0.00009
        355    56 -109.024575 -109.024688    0.000113   1.000    0.00061    0.00009
        356    50 -109.024573 -109.024692    0.000119   1.000    0.00061    0.00009
        357    50 -109.024570 -109.024691    0.000121   1.000    0.00061    0.00009
        358    56 -109.024568 -109.024688    0.000120   1.000    0.00061    0.00009
        359    50 -109.024565 -109.024684    0.000119   1.000    0.00060    0.00009
        360    50 -109.024563 -109.024675    0.000112   1.000    0.00060    0.00009
        361    50 -109.024561 -109.024666    0.000105   1.000    0.00060    0.00009
        362    50 -109.024559 -109.024655    0.000095   1.000    0.00060    0.00009
        363    50 -109.024558 -109.024643    0.000085   1.000    0.00059    0.00009
        364    56 -109.024557 -109.024630    0.000073   1.000    0.00059    0.00009
        365    56 -109.024556 -109.024619    0.000064   1.000    0.00059    0.00009
        366    50 -109.024555 -109.024608    0.000054   1.000    0.00059    0.00009
        367    55 -109.024554 -109.024597    0.000043   1.000    0.00058    0.00009
        368    50 -109.024553 -109.024590    0.000037   1.000    0.00058    0.00009
        369    49 -109.024553 -109.024582    0.000029   1.000    0.00058    0.00009
        370    50 -109.024552 -109.024577    0.000025   1.000    0.00057    0.00009
        371    56 -109.024552 -109.024573    0.000020   1.000    0.00057    0.00009
        372    50 -109.024552 -109.024572    0.000020   1.000    0.00057    0.00009
        373    50 -109.024552 -109.024571    0.000019   1.000    0.00057    0.00009
        374    50 -109.024551 -109.024572    0.000021   1.000    0.00056    0.00009
        375    50 -109.024551 -109.024574    0.000023   1.000    0.00056    0.00009
        376    49 -109.024550 -109.024577    0.000027   1.000    0.00056    0.00009
        377    50 -109.024550 -109.024581    0.000031   1.000    0.00056    0.00009
        378    50 -109.024549 -109.024584    0.000036   1.000    0.00056    0.00009
        379    50 -109.024549 -109.024588    0.000039   1.000    0.00055    0.00009
        380    49 -109.024547 -109.024591    0.000044   1.000    0.00055    0.00009
        381    50 -109.024547 -109.024594    0.000047   1.000    0.00055    0.00009
        382    50 -109.024546 -109.024596    0.000050   1.000    0.00055    0.00009
        383    50 -109.024545 -109.024597    0.000052   1.000    0.00055    0.00009
        384    50 -109.024544 -109.024597    0.000054   1.000    0.00054    0.00010
        385    49 -109.024542 -109.024597    0.000054   1.000    0.00054    0.00010
        386    50 -109.024542 -109.024595    0.000054   1.000    0.00054    0.00010
        387    50 -109.024540 -109.024593    0.000053   1.000    0.00054    0.00010
        388    50 -109.024539 -109.024591    0.000051   1.000    0.00054    0.00010
        389    49 -109.024538 -109.024587    0.000049   1.000    0.00053    0.00010
        390    50 -109.024537 -109.024584    0.000046   1.000    0.00053    0.00010
        391    49 -109.024537 -109.024580    0.000044   1.000    0.00053    0.00010
        392    50 -109.024535 -109.024576    0.000041   1.000    0.00053    0.00010
        393    50 -109.024535 -109.024573    0.000038   1.000    0.00053    0.00010
        394    48 -109.024534 -109.024569    0.000036   1.000    0.00053    0.00010
        395    50 -109.024533 -109.024566    0.000033   1.000    0.00053    0.00010
        396    48 -109.024532 -109.024563    0.000031   1.000    0.00052    0.00010
        397    50 -109.024532 -109.024560    0.000028   1.000    0.00052    0.00010
        398    48 -109.024531 -109.024557    0.000027   1.000    0.00052    0.00010
        399    50 -109.024530 -109.024554    0.000024   1.000    0.00052    0.00010
        400    48 -109.024529 -109.024552    0.000023   1.000    0.00052    0.00010
        401    50 -109.024529 -109.024550    0.000021   1.000    0.00052    0.00010
        402    50 -109.024528 -109.024548    0.000020   1.000    0.00052    0.00010
        403    49 -109.024528 -109.024546    0.000018   1.000    0.00051    0.00010
        404    50 -109.024527 -109.024544    0.000016   1.000    0.00051    0.00010
        405    50 -109.024527 -109.024542    0.000015   1.000    0.00051    0.00010
        406    49 -109.024526 -109.024540    0.000014   1.000    0.00051    0.00010
        407    48 -109.024526 -109.024538    0.000012   1.000    0.00051    0.00010
        408    49 -109.024526 -109.024536    0.000010   1.000    0.00051    0.00010
        409    49 -109.024525 -109.024534    0.000009   1.000    0.00051    0.00010
        410    50 -109.024525 -109.024532    0.000007   1.000    0.00050    0.00010
        411    50 -109.024524 -109.024531    0.000006   1.000    0.00050    0.00010
        412    49 -109.024524 -109.024529    0.000005   1.000    0.00050    0.00009
        413    48 -109.024524 -109.024528    0.000004   1.000    0.00050    0.00009
        414    48 -109.024524 -109.024527    0.000003   1.000    0.00050    0.00009
        415    48 -109.024523 -109.024526    0.000004   1.000    0.00050    0.00009
        416    48 -109.024523 -109.024526    0.000003   1.000    0.00050    0.00009
        417    48 -109.024522 -109.024526    0.000004   1.000    0.00050    0.00009
        418    50 -109.024522 -109.024526    0.000004   1.000    0.00050    0.00009
        419    49 -109.024522 -109.024527    0.000005   1.000    0.00049    0.00009
        420    48 -109.024521 -109.024527    0.000007   1.000    0.00049    0.00009
        421    43 -109.024521 -109.024529    0.000008   1.000    0.00049    0.00009
        422    48 -109.024520 -109.024529    0.000009   1.000    0.00049    0.00009
        423    43 -109.024520 -109.024531    0.000011   1.000    0.00049    0.00009
        424    49 -109.024519 -109.024531    0.000012   1.000    0.00049    0.00009
        425    43 -109.024518 -109.024532    0.000014   1.000    0.00049    0.00009
        426    48 -109.024518 -109.024532    0.000014   1.000    0.00049    0.00009
        427    43 -109.024517 -109.024533    0.000015   1.000    0.00049    0.00009
        428    48 -109.024517 -109.024531    0.000015   1.000    0.00049    0.00009
        429    43 -109.024516 -109.024532    0.000016   1.000    0.00048    0.00009
        430    48 -109.024515 -109.024530    0.000014   1.000    0.00048    0.00009
        431    43 -109.024515 -109.024529    0.000014   1.000    0.00048    0.00009
        432    49 -109.024514 -109.024527    0.000012   1.000    0.00048    0.00009
        433    43 -109.024514 -109.024526    0.000012   1.000    0.00048    0.00009
        434    48 -109.024513 -109.024522    0.000009   1.000    0.00048    0.00009
        435    43 -109.024513 -109.024521    0.000008   1.000    0.00048    0.00009
        436    49 -109.024513 -109.024517    0.000005   1.000    0.00048    0.00009
        437    43 -109.024512 -109.024516    0.000004   1.000    0.00048    0.00008
        438    48 -109.024512 -109.024512    0.000000   1.000    0.00048    0.00008
        439    43 -109.024512 -109.024511    0.000001   1.000    0.00048    0.00008
        440    49 -109.024511 -109.024507    0.000005   1.000    0.00048    0.00008
        441    43 -109.024511 -109.024506    0.000005   1.000    0.00048    0.00008
        442    49 -109.024511 -109.024503    0.000008   1.000    0.00047    0.00008
        443    43 -109.024510 -109.024502    0.000008   1.000    0.00047    0.00008
        444    48 -109.024510 -109.024500    0.000011   1.000    0.00047    0.00008
        445    43 -109.024510 -109.024500    0.000011   1.000    0.00047    0.00008
        446    48 -109.024510 -109.024498    0.000012   1.000    0.00047    0.00008
        447    43 -109.024510 -109.024499    0.000011   1.000    0.00047    0.00008
        448    48 -109.024510 -109.024497    0.000013   1.000    0.00047    0.00008
        449    43 -109.024510 -109.024498    0.000011   1.000    0.00047    0.00008
        450    49 -109.024510 -109.024497    0.000012   1.000    0.00047    0.00008
        451    43 -109.024509 -109.024499    0.000010   1.000    0.00047    0.00008
        452    48 -109.024509 -109.024498    0.000011   1.000    0.00047    0.00008
        453    43 -109.024509 -109.024500    0.000009   1.000    0.00047    0.00008
        454    48 -109.024509 -109.024499    0.000010   1.000    0.00047    0.00008
        455    48 -109.024508 -109.024500    0.000008   1.000    0.00047    0.00007
        456    49 -109.024508 -109.024500    0.000008   1.000    0.00046    0.00007
        457    48 -109.024508 -109.024501    0.000007   1.000    0.00046    0.00007
        458    49 -109.024507 -109.024501    0.000006   1.000    0.00046    0.00007
        459    49 -109.024507 -109.024501    0.000006   1.000    0.00046    0.00007
        460    49 -109.024507 -109.024501    0.000006   1.000    0.00046    0.00007
        461    49 -109.024506 -109.024501    0.000005   1.000    0.00046    0.00007
        462    49 -109.024506 -109.024501    0.000005   1.000    0.00046    0.00007
        463    48 -109.024506 -109.024500    0.000005   1.000    0.00046    0.00007
        464    49 -109.024505 -109.024500    0.000006   1.000    0.00046    0.00007
        465    49 -109.024505 -109.024499    0.000006   1.000    0.00046    0.00007
        466    48 -109.024505 -109.024499    0.000006   1.000    0.00046    0.00007
        467    48 -109.024504 -109.024498    0.000007   1.000    0.00046    0.00007
        468    48 -109.024504 -109.024497    0.000007   1.000    0.00046    0.00007
        469    48 -109.024504 -109.024496    0.000008   1.000    0.00046    0.00007
        470    48 -109.024504 -109.024496    0.000008   1.000    0.00046    0.00007
        471    49 -109.024504 -109.024495    0.000009   1.000    0.00046    0.00007
        472    49 -109.024503 -109.024494    0.000009   1.000    0.00046    0.00007
        473    48 -109.024503 -109.024493    0.000010   1.000    0.00045    0.00006
        474    49 -109.024503 -109.024492    0.000011   1.000    0.00045    0.00006
        475    49 -109.024503 -109.024492    0.000011   1.000    0.00045    0.00006
        476    48 -109.024502 -109.024491    0.000012   1.000    0.00045    0.00006
        477    49 -109.024502 -109.024490    0.000012   1.000    0.00045    0.00006
        478    48 -109.024502 -109.024489    0.000013   1.000    0.00045    0.00006
        479    49 -109.024502 -109.024489    0.000013   1.000    0.00045    0.00006
        480    49 -109.024502 -109.024488    0.000014   1.000    0.00045    0.00006
        481    49 -109.024501 -109.024487    0.000014   1.000    0.00045    0.00006
        482    48 -109.024502 -109.024487    0.000015   1.000    0.00045    0.00006
        483    49 -109.024501 -109.024486    0.000015   1.000    0.00045    0.00006
        484    48 -109.024501 -109.024486    0.000015   1.000    0.00045    0.00006
        485    49 -109.024501 -109.024485    0.000016   1.000    0.00045    0.00006
        486    48 -109.024501 -109.024485    0.000016   1.000    0.00045    0.00006
        487    49 -109.024501 -109.024485    0.000016   1.000    0.00045    0.00006
        488    50 -109.024501 -109.024485    0.000016   1.000    0.00045    0.00006
        489    48 -109.024500 -109.024484    0.000016   1.000    0.00045    0.00006
        490    48 -109.024500 -109.024484    0.000016   1.000    0.00045    0.00006
        491    48 -109.024500 -109.024484    0.000016   1.000    0.00044    0.00006
        492    49 -109.024500 -109.024484    0.000016   1.000    0.00044    0.00005
        493    49 -109.024500 -109.024484    0.000016   1.000    0.00044    0.00005
        494    49 -109.024500 -109.024484    0.000016   1.000    0.00044    0.00005
        495    48 -109.024500 -109.024484    0.000015   1.000    0.00044    0.00005
        496    49 -109.024499 -109.024484    0.000015   1.000    0.00044    0.00005
        497    48 -109.024499 -109.024484    0.000015   1.000    0.00044    0.00005
        498    49 -109.024499 -109.024484    0.000015   1.000    0.00044    0.00005
        499    50 -109.024499 -109.024484    0.000015   1.000    0.00044    0.00005

        ==> Orbital Optimization <==

            Orbital Optimization did not converge in  20 iterations 
            Total energy change: -3.773784e-02
            Final gradient norm: 9.827964e-05

        500    49 -109.062237 -108.994040    0.068196   8.632    0.00044    0.00005
        501   109 -109.068908 -108.615081    0.453826   8.632    0.01281    0.20222
        502    60 -109.073510 -108.815932    0.257579   8.632    0.01707    0.13548
        503    55 -109.074425 -109.047208    0.027217   8.632    0.01487    0.10739
        504    47 -109.073422 -109.103020    0.029598   8.632    0.01198    0.11123
        505    49 -109.073615 -109.090992    0.017377   8.632    0.00899    0.11652
        506    48 -109.074713 -109.102003    0.027290   8.632    0.00753    0.11558
        507    42 -109.069338 -109.156831    0.087493   8.632    0.00603    0.10746
        508    50 -109.070491 -109.222193    0.151703   8.632    0.00561    0.09558
        509    56 -109.069203 -109.285627    0.216424   8.632    0.00579    0.08234
        510    48 -109.070716 -109.301362    0.230645   8.632    0.00631    0.07568
        511    50 -109.071133 -109.293921    0.222788   8.632    0.00598    0.07321
        512    56 -109.072162 -109.268662    0.196500   8.632    0.00539    0.07349
        513    56 -109.071376 -109.263010    0.191634   8.632    0.00338    0.07254
        514    60 -109.072263 -109.258695    0.186432   8.632    0.00313    0.06955
        515    61 -109.072498 -109.249817    0.177320   8.632    0.00335    0.06610
        516    50 -109.072885 -109.242864    0.169979   8.632    0.00330    0.06428
        517    55 -109.072958 -109.251565    0.178606   8.632    0.00350    0.06071
        518    56 -109.072892 -109.248262    0.175371   8.632    0.00364    0.05814
        519    56 -109.072703 -109.240428    0.167725   8.632    0.00379    0.05549
        520    56 -109.072615 -109.224439    0.151824   8.632    0.00392    0.05276
        521    56 -109.072640 -109.204094    0.131454   8.632    0.00402    0.05009
        522    56 -109.072510 -109.179364    0.106855   8.632    0.00362    0.04781
        523    56 -109.072747 -109.157004    0.084258   8.632    0.00343    0.04605
        524    56 -109.072905 -109.137588    0.064682   8.632    0.00314    0.04436
        525    55 -109.073196 -109.117540    0.044344   8.632    0.00301    0.04287
        526    55 -109.073473 -109.100121    0.026649   8.632    0.00295    0.04142
        527    55 -109.073799 -109.084079    0.010280   8.632    0.00299    0.04008
        528    50 -109.074118 -109.071164    0.002953   8.632    0.00306    0.03887
        529    50 -109.074462 -109.061598    0.012864   8.632    0.00316    0.03768
        530    51 -109.074801 -109.058510    0.016291   8.632    0.00328    0.03630
        531    50 -109.075128 -109.061156    0.013971   8.632    0.00340    0.03465
        532    56 -109.075326 -109.067426    0.007900   8.632    0.00350    0.03283
        533    55 -109.075482 -109.078717    0.003234   8.632    0.00357    0.03108
        534    50 -109.075730 -109.093874    0.018145   8.632    0.00358    0.02982
        535    50 -109.075881 -109.103833    0.027952   8.632    0.00347    0.02895
        536    50 -109.076039 -109.109246    0.033207   8.632    0.00340    0.02802
        537    56 -109.076161 -109.109904    0.033743   8.632    0.00331    0.02704
        538    55 -109.076057 -109.109909    0.033851   8.632    0.00307    0.02614
        539    56 -109.075996 -109.112636    0.036641   8.632    0.00294    0.02522
        540    55 -109.075978 -109.117281    0.041302   8.632    0.00282    0.02436
        541    56 -109.075946 -109.121004    0.045058   8.632    0.00269    0.02372
        542    56 -109.075933 -109.124511    0.048579   8.632    0.00256    0.02328
        543    50 -109.075917 -109.127314    0.051397   8.632    0.00243    0.02292
        544    50 -109.075912 -109.129998    0.054086   8.632    0.00231    0.02251
        545    50 -109.075908 -109.132201    0.056293   8.632    0.00219    0.02198
        546    44 -109.075914 -109.135090    0.059177   8.632    0.00205    0.02155
        547    50 -109.075921 -109.140557    0.064636   8.632    0.00192    0.02097
        548    50 -109.075882 -109.143056    0.067174   8.632    0.00185    0.02031
        549    50 -109.075820 -109.145207    0.069387   8.632    0.00181    0.01959
        550    50 -109.075730 -109.146787    0.071057   8.632    0.00179    0.01888
        551    50 -109.075631 -109.148601    0.072970   8.632    0.00173    0.01902
        552    56 -109.075508 -109.155057    0.079550   8.632    0.00160    0.01822
        553    55 -109.075404 -109.154778    0.079374   8.632    0.00142    0.01805
        554    50 -109.075322 -109.159583    0.084261   8.632    0.00126    0.01785
        555    56 -109.075229 -109.159714    0.084485   8.632    0.00116    0.01747
        556    56 -109.075109 -109.154419    0.079310   8.632    0.00114    0.01705
        557    56 -109.074994 -109.149678    0.074684   8.632    0.00114    0.01660
        558    56 -109.074888 -109.143370    0.068482   8.632    0.00115    0.01617
        559    59 -109.074801 -109.137612    0.062811   8.632    0.00109    0.01634
        560    56 -109.074782 -109.135776    0.060994   8.632    0.00106    0.01548
        561    56 -109.074735 -109.129731    0.054996   8.632    0.00097    0.01533
        562    60 -109.074768 -109.129094    0.054326   8.632    0.00095    0.01442
        563    60 -109.074755 -109.122702    0.047947   8.632    0.00092    0.01382
        564    56 -109.074770 -109.118966    0.044196   8.632    0.00089    0.01341
        565    60 -109.074785 -109.113459    0.038674   8.632    0.00084    0.01320
        566    56 -109.074819 -109.108701    0.033882   8.632    0.00079    0.01313
        567    59 -109.074855 -109.103217    0.028362   8.632    0.00073    0.01311
        568    56 -109.074901 -109.098283    0.023382   8.632    0.00068    0.01310
        569    56 -109.074956 -109.093448    0.018492   8.632    0.00061    0.01308
        570    56 -109.075024 -109.089320    0.014296   8.632    0.00054    0.01304
        571    50 -109.075107 -109.085919    0.010812   8.632    0.00048    0.01295
        572    60 -109.075201 -109.083793    0.008592   8.632    0.00045    0.01271
        573    60 -109.075302 -109.082958    0.007656   8.632    0.00049    0.01226
        574    61 -109.075394 -109.084572    0.009177   8.632    0.00057    0.01149
        575    61 -109.075471 -109.087031    0.011560   8.632    0.00061    0.01082
        576    59 -109.075516 -109.089468    0.013952   8.632    0.00061    0.01042
        577    60 -109.075554 -109.092133    0.016579   8.632    0.00058    0.01022
        578    60 -109.075590 -109.094693    0.019103   8.632    0.00053    0.01015
        579    58 -109.075625 -109.097036    0.021412   8.632    0.00046    0.01013
        580    54 -109.075654 -109.099072    0.023419   8.632    0.00041    0.01010
        581    59 -109.075671 -109.100739    0.025069   8.632    0.00040    0.01002
        582    60 -109.075675 -109.101957    0.026283   8.632    0.00043    0.00986
        583    61 -109.075664 -109.102756    0.027092   8.632    0.00046    0.00959
        584    56 -109.075576 -109.103157    0.027581   8.632    0.00039    0.00936
        585    55 -109.075562 -109.105538    0.029976   8.632    0.00041    0.00904
        586    48 -109.075518 -109.106092    0.030574   8.632    0.00040    0.00878
        587    56 -109.075514 -109.105633    0.030118   8.632    0.00041    0.00861
        588    56 -109.075501 -109.104009    0.028507   8.632    0.00042    0.00848
        589    56 -109.075503 -109.101900    0.026396   8.632    0.00043    0.00837
        590    56 -109.075504 -109.099525    0.024021   8.632    0.00043    0.00828
        591    54 -109.075513 -109.097393    0.021880   8.632    0.00043    0.00821
        592    50 -109.075526 -109.095729    0.020203   8.632    0.00042    0.00814
        593    43 -109.075545 -109.094716    0.019171   8.632    0.00042    0.00804
        594    42 -109.075564 -109.094385    0.018822   8.632    0.00042    0.00791
        595    53 -109.075590 -109.095115    0.019525   8.632    0.00043    0.00775
        596    54 -109.075605 -109.095884    0.020279   8.632    0.00045    0.00757
        597    54 -109.075556 -109.097029    0.021473   8.632    0.00029    0.00746
        598    56 -109.075541 -109.098594    0.023054   8.632    0.00027    0.00733
        599    56 -109.075536 -109.100153    0.024617   8.632    0.00026    0.00727
        600    54 -109.075512 -109.101282    0.025771   8.632    0.00023    0.00724
        601    58 -109.075488 -109.102000    0.026512   8.632    0.00020    0.00722
        602    61 -109.075458 -109.102083    0.026625   8.632    0.00019    0.00718
        603    61 -109.075430 -109.101665    0.026235   8.632    0.00019    0.00711
        604    56 -109.075404 -109.100798    0.025394   8.632    0.00020    0.00702
        605    56 -109.075382 -109.099642    0.024260   8.632    0.00022    0.00690
        606    56 -109.075365 -109.098269    0.022904   8.632    0.00025    0.00677
        607    50 -109.075353 -109.096786    0.021433   8.632    0.00027    0.00664
        608    50 -109.075349 -109.095368    0.020018   8.632    0.00029    0.00653
        609    50 -109.075352 -109.093971    0.018619   8.632    0.00030    0.00642
        610    50 -109.075361 -109.092722    0.017362   8.632    0.00029    0.00634
        611    50 -109.075373 -109.091518    0.016145   8.632    0.00028    0.00628
        612    50 -109.075388 -109.090399    0.015011   8.632    0.00027    0.00623
        613    50 -109.075405 -109.089417    0.014013   8.632    0.00025    0.00618
        614    50 -109.075423 -109.088617    0.013194   8.632    0.00023    0.00613
        615    44 -109.075443 -109.088036    0.012593   8.632    0.00021    0.00607
        616    50 -109.075464 -109.087708    0.012244   8.632    0.00019    0.00601
        617    43 -109.075486 -109.087630    0.012144   8.632    0.00018    0.00593
        618    49 -109.075507 -109.087807    0.012300   8.632    0.00018    0.00586
        619    43 -109.075527 -109.088170    0.012644   8.632    0.00018    0.00578
        620    43 -109.075545 -109.088706    0.013162   8.632    0.00018    0.00572
        621    43 -109.075560 -109.089325    0.013765   8.632    0.00018    0.00566
        622    50 -109.075573 -109.089991    0.014418   8.632    0.00018    0.00561
        623    56 -109.075582 -109.090628    0.015045   8.632    0.00018    0.00556
        624    56 -109.075588 -109.091214    0.015626   8.632    0.00018    0.00550
        625    56 -109.075591 -109.091682    0.016092   8.632    0.00018    0.00544
        626    56 -109.075591 -109.092023    0.016432   8.632    0.00018    0.00538
        627    56 -109.075590 -109.092210    0.016620   8.632    0.00019    0.00532
        628    56 -109.075588 -109.092253    0.016665   8.632    0.00019    0.00525
        629    56 -109.075586 -109.092162    0.016577   8.632    0.00019    0.00520
        630    56 -109.075584 -109.091968    0.016385   8.632    0.00020    0.00515
        631    56 -109.075583 -109.091703    0.016121   8.632    0.00020    0.00511
        632    56 -109.075582 -109.091406    0.015824   8.632    0.00020    0.00507
        633    56 -109.075583 -109.091111    0.015528   8.632    0.00020    0.00503
        634    55 -109.075585 -109.090849    0.015264   8.632    0.00020    0.00500
        635    55 -109.075588 -109.090641    0.015053   8.632    0.00019    0.00496
        636    54 -109.075591 -109.090503    0.014912   8.632    0.00019    0.00493
        637    53 -109.075595 -109.090435    0.014841   8.632    0.00018    0.00489
        638    50 -109.075598 -109.090441    0.014843   8.632    0.00018    0.00485
        639    50 -109.075602 -109.090621    0.015019   8.632    0.00018    0.00482
        640    45 -109.075606 -109.090794    0.015188   8.632    0.00018    0.00478
        641    44 -109.075607 -109.090861    0.015254   8.632    0.00018    0.00473
        642    43 -109.075607 -109.090892    0.015285   8.632    0.00018    0.00469
        643    44 -109.075607 -109.090857    0.015250   8.632    0.00018    0.00465
        644    49 -109.075606 -109.090796    0.015190   8.632    0.00018    0.00461
        645    44 -109.075605 -109.090697    0.015092   8.632    0.00018    0.00457
        646    44 -109.075604 -109.090576    0.014973   8.632    0.00018    0.00453
        647    44 -109.075602 -109.090391    0.014789   8.632    0.00018    0.00450
        648    50 -109.075601 -109.090142    0.014541   8.632    0.00018    0.00446
        649    44 -109.075601 -109.089808    0.014207   8.632    0.00018    0.00443
        650    49 -109.075603 -109.089555    0.013952   8.632    0.00018    0.00440
        651    49 -109.075605 -109.089065    0.013460   8.632    0.00019    0.00437
        652    50 -109.075608 -109.088560    0.012952   8.632    0.00019    0.00434
        653    50 -109.075576 -109.087972    0.012396   8.632    0.00016    0.00433
        654    56 -109.075584 -109.087710    0.012125   8.632    0.00015    0.00430
        655    56 -109.075581 -109.087270    0.011689   8.632    0.00015    0.00427
        656    56 -109.075585 -109.086889    0.011304   8.632    0.00015    0.00424
        657    56 -109.075587 -109.086473    0.010886   8.632    0.00015    0.00421
        658    55 -109.075592 -109.086115    0.010523   8.632    0.00015    0.00418
        659    56 -109.075597 -109.085810    0.010213   8.632    0.00015    0.00415
        660    55 -109.075599 -109.085602    0.010003   8.632    0.00016    0.00411
        661    55 -109.075604 -109.085616    0.010012   8.632    0.00016    0.00408
        662    56 -109.075611 -109.085648    0.010037   8.632    0.00016    0.00405
        663    56 -109.075620 -109.085648    0.010028   8.632    0.00016    0.00402
        664    56 -109.075628 -109.085631    0.010002   8.632    0.00016    0.00399
        665    56 -109.075636 -109.085629    0.009993   8.632    0.00017    0.00396
        666    50 -109.075641 -109.085666    0.010024   8.632    0.00017    0.00394
        667    50 -109.075645 -109.085736    0.010091   8.632    0.00017    0.00391
        668    50 -109.075648 -109.085851    0.010203   8.632    0.00017    0.00389
        669    49 -109.075650 -109.085989    0.010339   8.632    0.00018    0.00387
        670    50 -109.075651 -109.086144    0.010492   8.632    0.00018    0.00384
        671    50 -109.075652 -109.086295    0.010643   8.632    0.00018    0.00382
        672    50 -109.075652 -109.086429    0.010776   8.632    0.00018    0.00380
        673    50 -109.075652 -109.086528    0.010877   8.632    0.00018    0.00378
        674    50 -109.075651 -109.086585    0.010935   8.632    0.00018    0.00376
        675    50 -109.075648 -109.086595    0.010947   8.632    0.00018    0.00373
        676    50 -109.075645 -109.086559    0.010914   8.632    0.00018    0.00371
        677    50 -109.075641 -109.086483    0.010842   8.632    0.00018    0.00369
        678    50 -109.075637 -109.086370    0.010733   8.632    0.00018    0.00366
        679    50 -109.075634 -109.086225    0.010592   8.632    0.00018    0.00364
        680    50 -109.075630 -109.086051    0.010420   8.632    0.00018    0.00361
        681    49 -109.075628 -109.085848    0.010220   8.632    0.00018    0.00358
        682    50 -109.075626 -109.085618    0.009992   8.632    0.00018    0.00356
        683    50 -109.075625 -109.085365    0.009741   8.632    0.00018    0.00353
        684    50 -109.075624 -109.085092    0.009468   8.632    0.00018    0.00351
        685    44 -109.075624 -109.084806    0.009181   8.632    0.00017    0.00349
        686    50 -109.075625 -109.084505    0.008880   8.632    0.00017    0.00346
        687    44 -109.075627 -109.084208    0.008581   8.632    0.00017    0.00344
        688    50 -109.075629 -109.083904    0.008275   8.632    0.00017    0.00342
        689    50 -109.075632 -109.083613    0.007981   8.632    0.00017    0.00340
        690    50 -109.075636 -109.083330    0.007694   8.632    0.00017    0.00337
        691    50 -109.075640 -109.083065    0.007425   8.632    0.00017    0.00335
        692    50 -109.075645 -109.082819    0.007174   8.632    0.00017    0.00333
        693    50 -109.075650 -109.082597    0.006947   8.632    0.00017    0.00331
        694    50 -109.075655 -109.082403    0.006748   8.632    0.00017    0.00329
        695    50 -109.075660 -109.082238    0.006578   8.632    0.00018    0.00326
        696    50 -109.075665 -109.082103    0.006437   8.632    0.00018    0.00324
        697    50 -109.075670 -109.081997    0.006327   8.632    0.00018    0.00322
        698    50 -109.075674 -109.081920    0.006246   8.632    0.00018    0.00320
        699    50 -109.075678 -109.081867    0.006189   8.632    0.00018    0.00317
        700    50 -109.075681 -109.081837    0.006155   8.632    0.00018    0.00315
        701    49 -109.075684 -109.081824    0.006140   8.632    0.00018    0.00312
        702    50 -109.075687 -109.081825    0.006138   8.632    0.00018    0.00310
        703    50 -109.075689 -109.081837    0.006148   8.632    0.00018    0.00308
        704    50 -109.075691 -109.081855    0.006164   8.632    0.00018    0.00306
        705    50 -109.075692 -109.081876    0.006183   8.632    0.00018    0.00304
        706    50 -109.075693 -109.081895    0.006202   8.632    0.00018    0.00302
        707    49 -109.075694 -109.081911    0.006217   8.632    0.00018    0.00300
        708    49 -109.075695 -109.081920    0.006226   8.632    0.00018    0.00298
        709    50 -109.075695 -109.081919    0.006225   8.632    0.00018    0.00296
        710    50 -109.075695 -109.081907    0.006212   8.632    0.00018    0.00294
        711    50 -109.075695 -109.081881    0.006186   8.632    0.00018    0.00292
        712    50 -109.075695 -109.081840    0.006145   8.632    0.00017    0.00290
        713    49 -109.075695 -109.081784    0.006089   8.632    0.00017    0.00288
        714    50 -109.075695 -109.081713    0.006018   8.632    0.00017    0.00287
        715    50 -109.075695 -109.081627    0.005932   8.632    0.00017    0.00285
        716    50 -109.075695 -109.081526    0.005831   8.632    0.00017    0.00283
        717    50 -109.075695 -109.081411    0.005716   8.632    0.00017    0.00281
        718    49 -109.075695 -109.081284    0.005589   8.632    0.00017    0.00280
        719    50 -109.075695 -109.081146    0.005451   8.632    0.00017    0.00278
        720    56 -109.075696 -109.080997    0.005301   8.632    0.00017    0.00276
        721    50 -109.075696 -109.080842    0.005146   8.632    0.00017    0.00274
        722    56 -109.075697 -109.080676    0.004979   8.632    0.00017    0.00273
        723    56 -109.075697 -109.080509    0.004811   8.632    0.00016    0.00271
        724    56 -109.075698 -109.080336    0.004638   8.632    0.00016    0.00269
        725    56 -109.075699 -109.080163    0.004464   8.632    0.00016    0.00268
        726    56 -109.075701 -109.079991    0.004290   8.632    0.00016    0.00266
        727    56 -109.075702 -109.079822    0.004120   8.632    0.00016    0.00265
        728    56 -109.075704 -109.079657    0.003953   8.632    0.00016    0.00263
        729    56 -109.075706 -109.079500    0.003794   8.632    0.00016    0.00262
        730    56 -109.075708 -109.079352    0.003644   8.632    0.00016    0.00260
        731    56 -109.075710 -109.079214    0.003504   8.632    0.00016    0.00259
        732    56 -109.075712 -109.079089    0.003377   8.632    0.00016    0.00258
        733    56 -109.075715 -109.078978    0.003263   8.632    0.00015    0.00256
        734    56 -109.075718 -109.078881    0.003163   8.632    0.00015    0.00255
        735    56 -109.075720 -109.078798    0.003078   8.632    0.00015    0.00253
        736    56 -109.075723 -109.078732    0.003009   8.632    0.00015    0.00252
        737    56 -109.075726 -109.078679    0.002954   8.632    0.00015    0.00251
        738    56 -109.075728 -109.078641    0.002913   8.632    0.00015    0.00249
        739    56 -109.075730 -109.078616    0.002886   8.632    0.00015    0.00248
        740    56 -109.075732 -109.078602    0.002869   8.632    0.00015    0.00246
        741    56 -109.075734 -109.078597    0.002863   8.632    0.00015    0.00245
        742    55 -109.075736 -109.078601    0.002865   8.632    0.00015    0.00244
        743    56 -109.075737 -109.078609    0.002871   8.632    0.00014    0.00242
        744    56 -109.075738 -109.078621    0.002883   8.632    0.00014    0.00241
        745    56 -109.075739 -109.078634    0.002894   8.632    0.00014    0.00240
        746    56 -109.075740 -109.078646    0.002906   8.632    0.00014    0.00239
        747    56 -109.075740 -109.078654    0.002914   8.632    0.00014    0.00238
        748    56 -109.075740 -109.078658    0.002918   8.632    0.00014    0.00237
        749    56 -109.075740 -109.078655    0.002915   8.632    0.00014    0.00236
        750    56 -109.075740 -109.078645    0.002905   8.632    0.00014    0.00234
        751    56 -109.075740 -109.078626    0.002886   8.632    0.00014    0.00233
        752    56 -109.075740 -109.078598    0.002859   8.632    0.00014    0.00232
        753    56 -109.075739 -109.078561    0.002822   8.632    0.00014    0.00231
        754    56 -109.075739 -109.078515    0.002776   8.632    0.00014    0.00230
        755    56 -109.075738 -109.078460    0.002721   8.632    0.00013    0.00229
        756    56 -109.075738 -109.078397    0.002659   8.632    0.00013    0.00228
        757    56 -109.075738 -109.078326    0.002588   8.632    0.00013    0.00227
        758    56 -109.075738 -109.078250    0.002512   8.632    0.00013    0.00226
        759    56 -109.075738 -109.078168    0.002430   8.632    0.00013    0.00225
        760    56 -109.075738 -109.078083    0.002345   8.632    0.00013    0.00224
        761    56 -109.075738 -109.077995    0.002257   8.632    0.00013    0.00223
        762    56 -109.075739 -109.077907    0.002168   8.632    0.00013    0.00222
        763    56 -109.075739 -109.077818    0.002079   8.632    0.00013    0.00221
        764    56 -109.075740 -109.077731    0.001991   8.632    0.00013    0.00220
        765    56 -109.075741 -109.077647    0.001906   8.632    0.00013    0.00219
        766    56 -109.075741 -109.077566    0.001825   8.632    0.00012    0.00218
        767    56 -109.075743 -109.077490    0.001747   8.632    0.00012    0.00217
        768    56 -109.075744 -109.077419    0.001676   8.632    0.00012    0.00216
        769    56 -109.075745 -109.077355    0.001610   8.632    0.00012    0.00215
        770    56 -109.075746 -109.077297    0.001551   8.632    0.00012    0.00215
[...]
       1921    45 -109.094441 -109.094363    0.000078   5.845    0.00012    0.00016
       1922    45 -109.094441 -109.094367    0.000074   5.845    0.00012    0.00016
       1923    45 -109.094440 -109.094359    0.000082   5.845    0.00012    0.00016
       1924    45 -109.094440 -109.094364    0.000077   5.845    0.00012    0.00016
       1925    45 -109.094440 -109.094356    0.000084   5.845    0.00012    0.00016
       1926    45 -109.094440 -109.094363    0.000078   5.845    0.00012    0.00015
       1927    45 -109.094440 -109.094356    0.000085   5.845    0.00012    0.00015
       1928    46 -109.094440 -109.094364    0.000077   5.845    0.00012    0.00015
       1929    44 -109.094440 -109.094357    0.000083   5.845    0.00012    0.00015
       1930    44 -109.094440 -109.094366    0.000075   5.845    0.00012    0.00015
       1931    45 -109.094440 -109.094360    0.000081   5.845    0.00012    0.00015
       1932    45 -109.094440 -109.094369    0.000072   5.845    0.00012    0.00015
       1933    45 -109.094440 -109.094363    0.000077   5.845    0.00012    0.00015
       1934    46 -109.094440 -109.094372    0.000068   5.845    0.00012    0.00015
       1935    45 -109.094440 -109.094367    0.000073   5.845    0.00012    0.00015
       1936    45 -109.094440 -109.094376    0.000064   5.845    0.00012    0.00015
       1937    45 -109.094440 -109.094371    0.000069   5.845    0.00012    0.00015
       1938    45 -109.094439 -109.094379    0.000060   5.845    0.00012    0.00015
       1939    45 -109.094439 -109.094373    0.000066   5.845    0.00012    0.00015
       1940    45 -109.094439 -109.094382    0.000058   5.845    0.00012    0.00015
       1941    45 -109.094439 -109.094375    0.000064   5.845    0.00012    0.00015
       1942    45 -109.094439 -109.094383    0.000056   5.845    0.00012    0.00015
       1943    45 -109.094439 -109.094376    0.000063   5.845    0.00012    0.00015
       1944    45 -109.094439 -109.094383    0.000056   5.845    0.00012    0.00015
       1945    45 -109.094438 -109.094375    0.000064   5.845    0.00012    0.00015
       1946    45 -109.094438 -109.094381    0.000057   5.845    0.00012    0.00015
       1947    46 -109.094438 -109.094372    0.000066   5.845    0.00012    0.00015
       1948    45 -109.094438 -109.094378    0.000059   5.845    0.00011    0.00015
       1949    45 -109.094438 -109.094369    0.000069   5.845    0.00011    0.00015
       1950    45 -109.094437 -109.094374    0.000063   5.845    0.00011    0.00015
       1951    45 -109.094437 -109.094364    0.000073   5.845    0.00011    0.00014
       1952    44 -109.094437 -109.094370    0.000067   5.845    0.00011    0.00014
       1953    45 -109.094437 -109.094359    0.000078   5.845    0.00011    0.00014
       1954    45 -109.094437 -109.094365    0.000072   5.845    0.00011    0.00014
       1955    45 -109.094437 -109.094353    0.000084   5.845    0.00011    0.00014
       1956    44 -109.094437 -109.094359    0.000077   5.845    0.00011    0.00014
       1957    45 -109.094437 -109.094348    0.000089   5.845    0.00011    0.00014
       1958    45 -109.094437 -109.094355    0.000082   5.845    0.00011    0.00014
       1959    45 -109.094437 -109.094343    0.000094   5.845    0.00011    0.00014
       1960    45 -109.094437 -109.094350    0.000086   5.845    0.00011    0.00014
       1961    45 -109.094436 -109.094339    0.000097   5.845    0.00011    0.00014
       1962    45 -109.094436 -109.094347    0.000089   5.845    0.00011    0.00014
       1963    44 -109.094436 -109.094336    0.000100   5.845    0.00011    0.00014
       1964    45 -109.094436 -109.094345    0.000092   5.845    0.00011    0.00014
       1965    45 -109.094436 -109.094334    0.000102   5.845    0.00011    0.00014
       1966    45 -109.094436 -109.094343    0.000093   5.845    0.00011    0.00014
       1967    45 -109.094436 -109.094333    0.000103   5.845    0.00011    0.00014
       1968    45 -109.094436 -109.094343    0.000093   5.845    0.00011    0.00014
       1969    45 -109.094436 -109.094333    0.000103   5.845    0.00011    0.00014
       1970    46 -109.094436 -109.094343    0.000093   5.845    0.00011    0.00014
       1971    45 -109.094436 -109.094334    0.000102   5.845    0.00011    0.00014
       1972    45 -109.094436 -109.094344    0.000092   5.845    0.00011    0.00014
       1973    45 -109.094436 -109.094335    0.000101   5.845    0.00011    0.00014
       1974    45 -109.094436 -109.094346    0.000090   5.845    0.00011    0.00014
       1975    45 -109.094435 -109.094337    0.000099   5.845    0.00011    0.00014
       1976    45 -109.094435 -109.094347    0.000088   5.845    0.00011    0.00014
       1977    46 -109.094435 -109.094338    0.000097   5.845    0.00011    0.00014
       1978    45 -109.094435 -109.094349    0.000087   5.845    0.00011    0.00014
       1979    45 -109.094435 -109.094340    0.000095   5.845    0.00011    0.00013
       1980    45 -109.094435 -109.094350    0.000085   5.845    0.00010    0.00013
       1981    45 -109.094435 -109.094341    0.000094   5.845    0.00010    0.00013
       1982    45 -109.094435 -109.094351    0.000084   5.845    0.00010    0.00013
       1983    45 -109.094434 -109.094342    0.000093   5.845    0.00010    0.00013
       1984    46 -109.094434 -109.094351    0.000083   5.845    0.00010    0.00013
       1985    45 -109.094434 -109.094342    0.000092   5.845    0.00010    0.00013
       1986    45 -109.094434 -109.094351    0.000083   5.845    0.00010    0.00013
       1987    45 -109.094434 -109.094342    0.000092   5.845    0.00010    0.00013
       1988    45 -109.094434 -109.094351    0.000083   5.845    0.00010    0.00013
       1989    45 -109.094434 -109.094341    0.000093   5.845    0.00010    0.00013
       1990    45 -109.094434 -109.094350    0.000084   5.845    0.00010    0.00013
       1991    45 -109.094433 -109.094340    0.000093   5.845    0.00010    0.00013
       1992    45 -109.094433 -109.094349    0.000085   5.845    0.00010    0.00013
       1993    45 -109.094433 -109.094339    0.000094   5.845    0.00010    0.00013
       1994    45 -109.094433 -109.094347    0.000086   5.845    0.00010    0.00013
       1995    45 -109.094433 -109.094337    0.000096   5.845    0.00010    0.00013
       1996    45 -109.094433 -109.094346    0.000087   5.845    0.00010    0.00013
       1997    45 -109.094433 -109.094336    0.000097   5.845    0.00010    0.00013
       1998    45 -109.094433 -109.094345    0.000088   5.845    0.00010    0.00013
       1999    45 -109.094433 -109.094335    0.000098   5.845    0.00010    0.00013

        ==> Orbital Optimization <==

            Orbital Optimization converged in   8 iterations 
            Total energy change: -7.420225e-06
            Final gradient norm: 8.198669e-05

       2000    45 -109.094440 -109.057123    0.037317   4.519    0.00010    0.00013
       2001    77 -109.094524 -109.082795    0.011729   4.519    0.00034    0.00295
       2002    60 -109.094716 -109.086871    0.007844   4.519    0.00046    0.00197
       2003    54 -109.094870 -109.090246    0.004624   4.519    0.00050    0.00147
       2004    49 -109.094909 -109.092435    0.002474   4.519    0.00043    0.00148
       2005    47 -109.094864 -109.093543    0.001321   4.519    0.00034    0.00161
       2006    48 -109.094790 -109.093840    0.000951   4.519    0.00030    0.00150
       2007    46 -109.094724 -109.093531    0.001193   4.519    0.00030    0.00124
       2008    48 -109.094673 -109.093051    0.001622   4.519    0.00028    0.00103
       2009    48 -109.094635 -109.092838    0.001797   4.519    0.00026    0.00095
       2010    48 -109.094611 -109.093154    0.001457   4.519    0.00027    0.00094
       2011    48 -109.094601 -109.093961    0.000640   4.519    0.00026    0.00094
       2012    49 -109.094600 -109.095036    0.000436   4.519    0.00023    0.00095
       2013    49 -109.094599 -109.096112    0.001512   4.519    0.00019    0.00098
       2014    48 -109.094592 -109.097001    0.002409   4.519    0.00015    0.00099
       2015    48 -109.094575 -109.097627    0.003051   4.519    0.00013    0.00099
       2016    54 -109.094547 -109.098002    0.003455   4.519    0.00013    0.00098
       2017    54 -109.094510 -109.098196    0.003686   4.519    0.00013    0.00096
       2018    48 -109.094468 -109.098271    0.003803   4.519    0.00013    0.00095
       2019    50 -109.094425 -109.098268    0.003843   4.519    0.00014    0.00092
       2020    48 -109.094384 -109.098198    0.003814   4.519    0.00016    0.00088
       2021    49 -109.094348 -109.098035    0.003687   4.519    0.00018    0.00082
       2022    48 -109.094320 -109.097755    0.003435   4.519    0.00020    0.00074
       2023    43 -109.094299 -109.097341    0.003043   4.519    0.00022    0.00064
       2024    43 -109.094285 -109.096802    0.002517   4.519    0.00024    0.00052
       2025    43 -109.094278 -109.096170    0.001891   4.519    0.00025    0.00040
       2026    43 -109.094277 -109.095483    0.001206   4.519    0.00026    0.00031
       2027    43 -109.094281 -109.094790    0.000509   4.519    0.00026    0.00028
       2028    43 -109.094288 -109.094122    0.000165   4.519    0.00025    0.00033
       2029    43 -109.094298 -109.093505    0.000793   4.519    0.00024    0.00041
       2030    43 -109.094311 -109.092949    0.001362   4.519    0.00023    0.00050
       2031    43 -109.094326 -109.092462    0.001864   4.519    0.00021    0.00057
       2032    43 -109.094344 -109.092049    0.002295   4.519    0.00019    0.00062
       2033    43 -109.094363 -109.091718    0.002645   4.519    0.00017    0.00065
       2034    43 -109.094385 -109.091481    0.002904   4.519    0.00016    0.00066
       2035    40 -109.094409 -109.091346    0.003063   4.519    0.00014    0.00065
       2036    44 -109.094434 -109.091334    0.003099   4.519    0.00012    0.00063
       2037    50 -109.094459 -109.091429    0.003030   4.519    0.00011    0.00059
       2038    49 -109.094485 -109.091646    0.002839   4.519    0.00011    0.00054
       2039    50 -109.094509 -109.091958    0.002551   4.519    0.00010    0.00048
       2040    48 -109.094531 -109.092355    0.002176   4.519    0.00010    0.00042
       2041    48 -109.094550 -109.092809    0.001742   4.519    0.00010    0.00035
       2042    54 -109.094565 -109.093297    0.001269   4.519    0.00010    0.00029
       2043    48 -109.094575 -109.093797    0.000778   4.519    0.00010    0.00025
       2044    53 -109.094580 -109.094283    0.000298   4.519    0.00010    0.00023
       2045    53 -109.094580 -109.094745    0.000165   4.519    0.00010    0.00024
       2046    53 -109.094574 -109.095160    0.000585   4.519    0.00010    0.00026
       2047    53 -109.094564 -109.095522    0.000958   4.519    0.00009    0.00030
       2048    53 -109.094550 -109.095821    0.001271   4.519    0.00009    0.00034
       2049    53 -109.094533 -109.096053    0.001520   4.519    0.00009    0.00038
       2050    53 -109.094514 -109.096216    0.001702   4.519    0.00009    0.00041
       2051    48 -109.094493 -109.096311    0.001818   4.519    0.00009    0.00044
       2052    49 -109.094471 -109.096340    0.001869   4.519    0.00009    0.00045
       2053    44 -109.094450 -109.096310    0.001860   4.519    0.00010    0.00045
       2054    43 -109.094430 -109.096229    0.001799   4.519    0.00011    0.00043
       2055    43 -109.094411 -109.096099    0.001688   4.519    0.00012    0.00040
       2056    43 -109.094395 -109.095932    0.001536   4.519    0.00013    0.00036
       2057    49 -109.094381 -109.095733    0.001351   4.519    0.00014    0.00031
       2058    50 -109.094370 -109.095509    0.001139   4.519    0.00015    0.00026
       2059    50 -109.094362 -109.095268    0.000906   4.519    0.00016    0.00021
       2060    49 -109.094358 -109.095016    0.000658   4.519    0.00016    0.00015
       2061    49 -109.094356 -109.094760    0.000404   4.519    0.00016    0.00011
       2062    50 -109.094357 -109.094506    0.000149   4.519    0.00016    0.00010
       2063    50 -109.094361 -109.094260    0.000101   4.519    0.00016    0.00013
       2064    50 -109.094368 -109.094028    0.000340   4.519    0.00016    0.00017
       2065    43 -109.094376 -109.093813    0.000563   4.519    0.00015    0.00021
       2066    43 -109.094386 -109.093626    0.000761   4.519    0.00014    0.00024
       2067    43 -109.094397 -109.093463    0.000935   4.519    0.00014    0.00027
       2068    43 -109.094409 -109.093332    0.001077   4.519    0.00013    0.00029
       2069    43 -109.094422 -109.093235    0.001187   4.519    0.00012    0.00030
       2070    45 -109.094434 -109.093174    0.001260   4.519    0.00011    0.00030
       2071    44 -109.094446 -109.093151    0.001295   4.519    0.00010    0.00029
       2072    44 -109.094458 -109.093167    0.001291   4.519    0.00010    0.00028
       2073    49 -109.094469 -109.093221    0.001248   4.519    0.00009    0.00026
       2074    49 -109.094479 -109.093311    0.001168   4.519    0.00009    0.00023
       2075    48 -109.094487 -109.093437    0.001050   4.519    0.00008    0.00020
       2076    48 -109.094494 -109.093593    0.000901   4.519    0.00008    0.00016
       2077    47 -109.094499 -109.093776    0.000724   4.519    0.00008    0.00013
       2078    54 -109.094503 -109.093978    0.000525   4.519    0.00008    0.00010
       2079    48 -109.094504 -109.094195    0.000309   4.519    0.00008    0.00007
       2080    53 -109.094504 -109.094414    0.000090   4.519    0.00008    0.00007

        ==> Orbital Optimization <==

            Orbital Optimization converged in   3 iterations 
            Total energy change: -1.638244e-07
            Final gradient norm: 9.320252e-05

       2081    65 -109.094518 -109.092606    0.001912   4.519    0.00009    0.00041
       2082    54 -109.094544 -109.093484    0.001060   4.519    0.00011    0.00026
       2083    54 -109.094562 -109.094257    0.000304   4.519    0.00011    0.00019
       2084    54 -109.094562 -109.094801    0.000238   4.519    0.00010    0.00020
       2085    53 -109.094549 -109.095137    0.000588   4.519    0.00009    0.00023
       2086    49 -109.094530 -109.095295    0.000766   4.519    0.00009    0.00023
       2087    48 -109.094510 -109.095328    0.000818   4.519    0.00009    0.00023
       2088    49 -109.094491 -109.095307    0.000816   4.519    0.00008    0.00024
       2089    48 -109.094474 -109.095295    0.000821   4.519    0.00008    0.00025
       2090    49 -109.094459 -109.095327    0.000867   4.519    0.00008    0.00027
       2091    49 -109.094448 -109.095389    0.000942   4.519    0.00009    0.00027
       2092    49 -109.094438 -109.095449    0.001011   4.519    0.00009    0.00027
       2093    45 -109.094430 -109.095472    0.001042   4.519    0.00010    0.00026
       2094    45 -109.094423 -109.095436    0.001013   4.519    0.00010    0.00025
       2095    45 -109.094416 -109.095351    0.000934   4.519    0.00011    0.00023
       2096    45 -109.094410 -109.095220    0.000811   4.519    0.00012    0.00020
       2097    43 -109.094404 -109.095072    0.000668   4.519    0.00012    0.00017
       2098    43 -109.094399 -109.094918    0.000519   4.519    0.00013    0.00015
       2099    40 -109.094395 -109.094770    0.000375   4.519    0.00013    0.00012
       2100    43 -109.094393 -109.094631    0.000238   4.519    0.00013    0.00010
       2101    44 -109.094392 -109.094498    0.000106   4.519    0.00013    0.00009
       2102    45 -109.094394 -109.094371    0.000023   4.519    0.00013    0.00009
       2103    45 -109.094397 -109.094245    0.000152   4.519    0.00013    0.00010
       2104    43 -109.094401 -109.094124    0.000277   4.519    0.00013    0.00011
       2105    40 -109.094407 -109.094011    0.000396   4.519    0.00012    0.00013
       2106    40 -109.094413 -109.093914    0.000500   4.519    0.00012    0.00014
       2107    40 -109.094420 -109.093832    0.000588   4.519    0.00012    0.00016
       2108    40 -109.094427 -109.093772    0.000655   4.519    0.00011    0.00017
       2109    40 -109.094433 -109.093731    0.000702   4.519    0.00011    0.00017
       2110    40 -109.094439 -109.093711    0.000728   4.519    0.00010    0.00018
       2111    40 -109.094445 -109.093709    0.000736   4.519    0.00010    0.00017
       2112    45 -109.094451 -109.093725    0.000726   4.519    0.00009    0.00016
       2113    49 -109.094456 -109.093756    0.000699   4.519    0.00009    0.00015
       2114    48 -109.094460 -109.093803    0.000657   4.519    0.00009    0.00014
       2115    49 -109.094464 -109.093867    0.000597   4.519    0.00009    0.00012
       2116    49 -109.094467 -109.093946    0.000521   4.519    0.00008    0.00010
       2117    49 -109.094470 -109.094041    0.000428   4.519    0.00008    0.00008
       2118    48 -109.094472 -109.094150    0.000322   4.519    0.00008    0.00007
       2119    49 -109.094473 -109.094268    0.000205   4.519    0.00008    0.00006
       2120    50 -109.094473 -109.094392    0.000081   4.519    0.00008    0.00006

        ==> Orbital Optimization <==

            Orbital Optimization converged in   1 iterations 
            Total energy change: -1.663409e-09
            Final gradient norm: 6.018425e-05


      v2RDM iterations converged!

      v2RDM total spin [S(S+1)]:            -0.000015
    * v2RDM total energy:           -109.094473284022


 # Natural Orbital Occupation Numbers (alpha) #
 Irrep: 1
      1:  1.0000000
      2:  1.0000000
      3:  0.9906472
      4:  0.0000000
      5:  0.0000000
      6:  0.0000000
      7:  0.0000000

 Irrep: 2
      1:  0.0000000

 Irrep: 3
      1:  0.0326583
      2:  0.0000000
      3:  0.0000000

 Irrep: 4
      1:  0.0326587
      2:  0.0000000
      3:  0.0000000

 Irrep: 5
      1:  0.0000000

 Irrep: 6
      1:  1.0000000
      2:  1.0000000
      3:  0.0094085
      4:  0.0000000
      5:  0.0000000
      6:  0.0000000
      7:  0.0000000

 Irrep: 7
      1:  0.9673136
      2:  0.0000000
      3:  0.0000000

 Irrep: 8
      1:  0.9673137
      2:  0.0000000
      3:  0.0000000


 # Natural Orbital Occupation Numbers (beta) #
 Irrep: 1
      1:  1.0000000
      2:  1.0000000
      3:  0.9906472
      4:  0.0000000
      5:  0.0000000
      6:  0.0000000
      7:  0.0000000

 Irrep: 2
      1:  0.0000000

 Irrep: 3
      1:  0.0326583
      2:  0.0000000
      3:  0.0000000

 Irrep: 4
      1:  0.0326586
      2:  0.0000000
      3:  0.0000000

 Irrep: 5
      1:  0.0000000

 Irrep: 6
      1:  1.0000000
      2:  1.0000000
      3:  0.0094085
      4:  0.0000000
      5:  0.0000000
      6:  0.0000000
      7:  0.0000000

 Irrep: 7
      1:  0.9673136
      2:  0.0000000
      3:  0.0000000

 Irrep: 8
      1:  0.9673137
      2:  0.0000000
      3:  0.0000000


  ==> Iteration count <==

      Microiterations:                  102724
      Macroiterations:                    2121
      Orbital optimization steps:            6

  ==> Wall time <==

      Microiterations:                   10.13 s
      Macroiterations:                    2.34 s
      Orbital optimization:               0.27 s
      Total:                             13.22 s


*** tstop() called on wg-dhcp201d206d180.secure.wireless.fsu. at Mon May  9 10:07:10 2016
Module time:
	user time   =      13.38 seconds =       0.22 minutes
	system time =       0.05 seconds =       0.00 minutes
	total time  =         13 seconds =       0.22 minutes
Total time:
	user time   =      13.60 seconds =       0.23 minutes
	system time =       0.06 seconds =       0.00 minutes
	total time  =         13 seconds =       0.22 minutes
	SCF total energy..................................................PASSED
	v2RDM-CASSCF total energy.........................................PASSED

*** PSI4 exiting successfully. Buy a developer a beer!
