    -----------------------------------------------------------------------
          Psi4: An Open-Source Ab Initio Electronic Structure Package
                              Psi4 0.4.224 Driver

                          Git: Rev {master} e38ff50 

    J. M. Turney, A. C. Simmonett, R. M. Parrish, E. G. Hohenstein,
    F. A. Evangelista, J. T. Fermann, B. J. Mintz, L. A. Burns, J. J. Wilke,
    M. L. Abrams, N. J. Russ, M. L. Leininger, C. L. Janssen, E. T. Seidl,
    W. D. Allen, H. F. Schaefer, R. A. King, E. F. Valeev, C. D. Sherrill,
    and T. D. Crawford, WIREs Comput. Mol. Sci. 2, 556-565 (2012)
    (doi: 10.1002/wcms.93)

                         Additional Contributions by
    A. E. DePrince, U. Bozkaya, A. Yu. Sokolov, D. G. A. Smith, R. Di Remigio,
    R. M. Richard, J. F. Gonthier, H. R. McAlexander, M. Saitow, and
    B. P. Pritchard
    -----------------------------------------------------------------------


    Psi4 started on: Tue Apr  5 16:25:06 2016

    Process ID:  14933
    PSI4DATADIR: /edfs/users/edgroup/software/psi4/install/psi4-intel2016-release/share/psi4
    Memory level set to 256.000 MB

  ==> Input File <==

--------------------------------------------------------------------------
#! cc-pvdz N2 (6,6) active space Test DQG

# job description:
print '        N2 / cc-pVDZ / DQG(6,6), scf_type = PK, rNN = 1.1 A'

sys.path.insert(0, '../../..')
import v2rdm_casscf

molecule n2 {
0 1
n
n 1 r
}

set {
  basis cc-pvdz
  scf_type pk
  d_convergence      1e-10
  maxiter 500
  restricted_docc  [ 2, 0, 0, 0, 0, 2, 0, 0 ]
  restricted_uocc  [ 4, 1, 2, 2, 1, 4, 2, 2 ]
}
set v2rdm_casscf {
  positivity dqg
  r_convergence  1e-4
  e_convergence  1e-4
  maxiter 20000
}

activate(n2)

n2.r     = 1.1
refscf   = -108.95379624015767 # TEST
refv2rdm = -109.094829037354   # TEST

energy('v2rdm-casscf')

compare_values(refscf, get_variable("SCF TOTAL ENERGY"), 8, "SCF total energy") # TEST
compare_values(refv2rdm, get_variable("CURRENT ENERGY"), 4, "v2RDM-CASSCF total energy") # TEST

--------------------------------------------------------------------------
/edfs/users/deprince/chem/v2rdm_casscf/v2rdm_casscf.so loaded.
Setting geometry variable r to 1.100000

*** tstart() called on ed4
*** at Tue Apr  5 16:25:08 2016


         ---------------------------------------------------------
                                   SCF
            by Justin Turney, Rob Parrish, and Andy Simmonett
                              RHF Reference
                        1 Threads,    256 MiB Core
         ---------------------------------------------------------

  ==> Geometry <==

    Molecular point group: d2h
    Full point group: D_inf_h

    Geometry (in Angstrom), charge = 0, multiplicity = 1:

       Center              X                  Y                   Z               Mass       
    ------------   -----------------  -----------------  -----------------  -----------------
           N          0.000000000000     0.000000000000    -0.550000000000    14.003074004780
           N          0.000000000000     0.000000000000     0.550000000000    14.003074004780

  Running in d2h symmetry.

  Rotational constants: A = ************  B =      1.98984  C =      1.98984 [cm^-1]
  Rotational constants: A = ************  B =  59653.84444  C =  59653.84444 [MHz]
  Nuclear repulsion =   23.572439291736366

  Charge       = 0
  Multiplicity = 1
  Electrons    = 14
  Nalpha       = 7
  Nbeta        = 7

  ==> Algorithm <==

  SCF Algorithm Type is PK.
  DIIS enabled.
  MOM disabled.
  Fractional occupation disabled.
  Guess Type is CORE.
  Energy threshold   = 1.00e-08
  Density threshold  = 1.00e-10
  Integral threshold = 0.00e+00

  ==> Primary Basis <==

  Basis Set: CC-PVDZ
    Number of shells: 12
    Number of basis function: 28
    Number of Cartesian functions: 30
    Spherical Harmonics?: true
    Max angular momentum: 2

  ==> Pre-Iterations <==

   -------------------------------------------------------
    Irrep   Nso     Nmo     Nalpha   Nbeta   Ndocc  Nsocc
   -------------------------------------------------------
     Ag         7       7       0       0       0       0
     B1g        1       1       0       0       0       0
     B2g        3       3       0       0       0       0
     B3g        3       3       0       0       0       0
     Au         1       1       0       0       0       0
     B1u        7       7       0       0       0       0
     B2u        3       3       0       0       0       0
     B3u        3       3       0       0       0       0
   -------------------------------------------------------
    Total      28      28       7       7       7       0
   -------------------------------------------------------

  ==> Integral Setup <==

	Batch   1 pq = [       0,      82] index = [             0,3403]
  ==> DiskJK: Disk-Based J/K Matrices <==

    J tasked:                  Yes
    K tasked:                  Yes
    wK tasked:                  No
    Memory (MB):               183
    Schwarz Cutoff:          1E-12

  Minimum eigenvalue in the overlap matrix is 6.1906036234E-03.
  Using Symmetric Orthogonalization.
  SCF Guess: Core (One-Electron) Hamiltonian.

  ==> Iterations <==

                        Total Energy        Delta E     RMS |[F,P]|

    Occupation by irrep:
             Ag   B1g   B2g   B3g    Au   B1u   B2u   B3u 
    DOCC [     3,    0,    0,    0,    0,    2,    1,    1 ]

   @RHF iter   1:   -99.92451059046800   -9.99245e+01   2.54409e-01 
   @RHF iter   2:  -106.57820116901635   -6.65369e+00   1.86593e-01 DIIS
   @RHF iter   3:  -108.86479913107638   -2.28660e+00   3.60266e-02 DIIS
   @RHF iter   4:  -108.95061571228524   -8.58166e-02   5.37124e-03 DIIS
   @RHF iter   5:  -108.95370946577702   -3.09375e-03   9.43948e-04 DIIS
   @RHF iter   6:  -108.95379548518736   -8.60194e-05   8.59846e-05 DIIS
   @RHF iter   7:  -108.95379622788008   -7.42693e-07   1.25229e-05 DIIS
   @RHF iter   8:  -108.95379623997192   -1.20918e-08   1.54430e-06 DIIS
   @RHF iter   9:  -108.95379624015658   -1.84656e-10   1.00777e-07 DIIS
   @RHF iter  10:  -108.95379624015757   -9.94760e-13   8.46540e-09 DIIS
   @RHF iter  11:  -108.95379624015752    5.68434e-14   7.64925e-10 DIIS
   @RHF iter  12:  -108.95379624015754   -2.84217e-14   6.51577e-11 DIIS

  ==> Post-Iterations <==

    Orbital Energies (a.u.)
    -----------------------

    Doubly Occupied:                                                      

       1Ag   -15.687167     1B1u  -15.683810     2Ag    -1.469497  
       2B1u   -0.774851     3Ag    -0.626026     1B2u   -0.607175  
       1B3u   -0.607175  

    Virtual:                                                              

       1B3g    0.174428     1B2g    0.174428     3B1u    0.593893  
       4Ag     0.820946     2B2u    0.872872     2B3u    0.872872  
       5Ag     0.991969     2B3g    1.050510     2B2g    1.050510  
       4B1u    1.140849     5B1u    1.640840     1B1g    1.758149  
       6Ag     1.758149     3B3u    1.879691     3B2u    1.879691  
       6B1u    2.297394     1Au     2.297394     7Ag     2.871857  
       3B2g    2.993863     3B3g    2.993863     7B1u    3.278667  

    Final Occupation by Irrep:
             Ag   B1g   B2g   B3g    Au   B1u   B2u   B3u 
    DOCC [     3,    0,    0,    0,    0,    2,    1,    1 ]

  Energy converged.

  @RHF Final Energy:  -108.95379624015754

   => Energetics <=

    Nuclear Repulsion Energy =             23.5724392917363659
    One-Electron Energy =                -194.1410686710959226
    Two-Electron Energy =                  61.6148331392019983
    DFT Exchange-Correlation Energy =       0.0000000000000000
    Empirical Dispersion Energy =           0.0000000000000000
    PCM Polarization Energy =               0.0000000000000000
    EFP Energy =                            0.0000000000000000
    Total Energy =                       -108.9537962401575442

    Alert: EFP and PCM quantities not currently incorporated into SCF psivars.

Properties will be evaluated at   0.000000,   0.000000,   0.000000 Bohr
  ==> Properties <==


Properties computed using the SCF density matrix

  Nuclear Dipole Moment: (a.u.)
     X:     0.0000      Y:     0.0000      Z:     0.0000

  Electronic Dipole Moment: (a.u.)
     X:     0.0000      Y:     0.0000      Z:     0.0000

  Dipole Moment: (a.u.)
     X:     0.0000      Y:     0.0000      Z:     0.0000     Total:     0.0000

  Dipole Moment: (Debye)
     X:     0.0000      Y:     0.0000      Z:     0.0000     Total:     0.0000


  Saving occupied orbitals to File 180.

*** tstop() called on ed4 at Tue Apr  5 16:25:08 2016
Module time:
	user time   =       0.11 seconds =       0.00 minutes
	system time =       0.03 seconds =       0.00 minutes
	total time  =          0 seconds =       0.00 minutes
Total time:
	user time   =       0.11 seconds =       0.00 minutes
	system time =       0.03 seconds =       0.00 minutes
	total time  =          0 seconds =       0.00 minutes

Reading options from the V2RDM_CASSCF block
Calling plugin v2rdm_casscf.so.



*** tstart() called on ed4
*** at Tue Apr  5 16:25:08 2016



        ****************************************************
        *                                                  *
        *    v2RDM-CASSCF                                  *
        *                                                  *
        *    A variational 2-RDM-driven approach to the    *
        *    active space self-consistent field method     *
        *                                                  *
        ****************************************************


        The following papers should be cited when using v2RDM-CASSCF:

        J. Fosso-Tande, D. R. Nascimento, and A. E. DePrince III,
        Mol. Phys. 114, 423-430 (2015).

            URL: http://dx.doi.org/10.1080/00268976.2015.1078008

        J. Fosso-Tande, T.-S. Nguyen, G. Gidofalvi, and
        A. E. DePrince III, submitted (2016).


  ==> Convergence parameters <==

        r_convergence:                      1.000e-04
        e_convergence:                      1.000e-04
        cg_convergence:                     1.000e-05
        maxiter:                                20000
        cg_maxiter:                             10000

  ==> Active space details <==

        Number of frozen core orbitals:             0
        Number of restricted occupied orbitals:     4
        Number of active occupied orbitals:         3
        Number of active virtual orbitals:          3
        Number of restricted virtual orbitals:     18
        Number of frozen virtual orbitals:          0

        Irrep:             Ag, B1g, B2g, B3g,  Au, B1u, B2u, B3u 
 
        frozen_docc     [   0,   0,   0,   0,   0,   0,   0,   0 ]
        restricted_docc [   2,   0,   0,   0,   0,   2,   0,   0 ]
        active          [   1,   0,   1,   1,   0,   1,   1,   1 ]
        restricted_uocc [   4,   1,   2,   2,   1,   4,   2,   2 ]
        frozen_uocc     [   0,   0,   0,   0,   0,   0,   0,   0 ]

  ==> Orbital optimization parameters <==

        1-step algorithm:                       1
        g_convergence:                  1.000e-04
        e_convergence:                  1.000e-08
        maximum iterations:                    20
        frequency:                            500
        active-active rotations:                0
        exact diagonal Hessian:                 0
        number of DIIS vectors:                 0
        print iteration info:                   0

  ==> Memory requirements <==

        D2:                          0.00 mb
        Q2:                          0.00 mb
        G2:                          0.01 mb

        Total number of variables:           1500
        Total number of constraints:         1282
        Total memory requirements:        4.87 mb

    ==> Transform two-electron integrals <==

	Presorting SO-basis two-electron integrals.
	Sorting File: SO Ints (nn|nn) nbuckets = 1
	Transforming the one-electron integrals and constructing Fock matrices
	Starting first half-transformation.
	Sorting half-transformed integrals.
	First half integral transformation complete.
	Starting second half-transformation.
	Two-electron integral transformation complete.

        Time for integral transformation:     0.21 s


        Read integrals......done.


    reference energy:        -108.953796240158
    frozen core energy:      -121.129833723337
    initial 2-RDM energy:     -90.217525332003

      oiter iiter        E(p)        E(d)      E gap)      mu     eps(p)     eps(d)
          0    65 -109.868237   82.930824  192.799061   1.000   66.17258   48.95434
          1    41  -95.977601 -312.090386  216.112786   1.000   10.47401   29.96733
          2    42 -116.155759 -160.942613   44.786854   1.000   13.99585    8.78667
          3    39 -109.247569 -145.422718   36.175149   1.000   10.88526    3.50827
          4    42 -111.457258 -128.802718   17.345461   1.000    8.76851    2.62273
          5    38 -107.778024 -118.452958   10.674933   1.000    4.56482    2.38146
          6    41 -108.807913 -113.196553    4.388640   1.000    4.08469    1.74240
          7    38 -107.387327 -107.585025    0.197697   1.000    2.35311    1.52606
          8    38 -107.436745 -104.629297    2.807448   1.000    1.32016    2.16323
          9    41 -107.584206 -107.459503    0.124703   1.000    0.72745    1.36441
         10    37 -107.760436 -106.750123    1.010314   1.000    0.43812    0.85718
         11    35 -107.874036 -107.396486    0.477549   1.000    0.30507    0.57019
         12    35 -107.966832 -107.226948    0.739884   1.000    0.25906    0.39415
         13    35 -108.014196 -107.645593    0.368603   1.000    0.19143    0.31759
         14    37 -108.053813 -107.670890    0.382923   1.000    0.13684    0.29585
         15    32 -108.081036 -107.746114    0.334922   1.000    0.11671    0.26979
         16    32 -108.117036 -107.659385    0.457651   1.000    0.11498    0.24280
         17    30 -108.159190 -107.644207    0.514983   1.000    0.10161    0.22657
         18    37 -108.206440 -107.645666    0.560774   1.000    0.10410    0.21811
         19    38 -108.254246 -107.694181    0.560065   1.000    0.11688    0.21319
         20    32 -108.301561 -107.742628    0.558933   1.000    0.12612    0.20790
         21    33 -108.344102 -107.809077    0.535025   1.000    0.12316    0.20398
         22    30 -108.381727 -107.890638    0.491088   1.000    0.10902    0.19841
         23    31 -108.413274 -107.906974    0.506300   1.000    0.10206    0.19338
         24    35 -108.438629 -107.910373    0.528257   1.000    0.09132    0.18908
         25    33 -108.464508 -107.901472    0.563036   1.000    0.07961    0.18390
         26    33 -108.478043 -107.922483    0.555561   1.000    0.10433    0.17329
         27    32 -108.492016 -108.004920    0.487096   1.000    0.14827    0.15546
         28    34 -108.510542 -108.179782    0.330760   1.000    0.14911    0.14040
         29    32 -108.525815 -108.324335    0.201481   1.000    0.11069    0.13638
         30    38 -108.544300 -108.370512    0.173788   1.000    0.07710    0.13400
         31    38 -108.583679 -108.374130    0.209549   1.000    0.08369    0.12769
         32    38 -108.588833 -108.338177    0.250656   1.000    0.08898    0.12037
         33    33 -108.603748 -108.272595    0.331153   1.000    0.08605    0.11639
         34    34 -108.608476 -108.238453    0.370023   1.000    0.05750    0.11537
         35    37 -108.616492 -108.223095    0.393397   1.000    0.03578    0.11419
         36    38 -108.623636 -108.249073    0.374563   1.000    0.03606    0.11223
         37    37 -108.632931 -108.280903    0.352028   1.000    0.04068    0.11024
         38    38 -108.641413 -108.324109    0.317304   1.000    0.04059    0.10783
         39    37 -108.652680 -108.357398    0.295282   1.000    0.03327    0.10620
         40    38 -108.664126 -108.368485    0.295640   1.000    0.02848    0.10510
         41    41 -108.675737 -108.358814    0.316923   1.000    0.02853    0.10394
         42    41 -108.686817 -108.345557    0.341259   1.000    0.02932    0.10274
         43    41 -108.697807 -108.335870    0.361937   1.000    0.02741    0.10183
         44    40 -108.707530 -108.336354    0.371176   1.000    0.02481    0.10108
         45    40 -108.716390 -108.340826    0.375564   1.000    0.02252    0.10056
         46    41 -108.724813 -108.345714    0.379099   1.000    0.02034    0.10036
         47    40 -108.732945 -108.351374    0.381571   1.000    0.01860    0.10008
         48    41 -108.741117 -108.351293    0.389824   1.000    0.01841    0.09962
         49    40 -108.750103 -108.350610    0.399493   1.000    0.01944    0.09897
         50    32 -108.759978 -108.349151    0.410827   1.000    0.01926    0.09845
         51    40 -108.769445 -108.349610    0.419835   1.000    0.01796    0.09809
         52    42 -108.779996 -108.353072    0.426924   1.000    0.01764    0.09777
         53    41 -108.790604 -108.355416    0.435188   1.000    0.01738    0.09767
         54    40 -108.800540 -108.355970    0.444570   1.000    0.01634    0.09761
         55    40 -108.806993 -108.357163    0.449830   1.000    0.01911    0.09724
         56    38 -108.813681 -108.361540    0.452142   1.000    0.02565    0.09647
         57    38 -108.821288 -108.366763    0.454525   1.000    0.02878    0.09581
         58    32 -108.829637 -108.370327    0.459310   1.000    0.02801    0.09537
         59    35 -108.838972 -108.373141    0.465831   1.000    0.02484    0.09506
         60    32 -108.848606 -108.375147    0.473459   1.000    0.02123    0.09471
         61    34 -108.858841 -108.378183    0.480658   1.000    0.01987    0.09403
         62    35 -108.868119 -108.387078    0.481041   1.000    0.02030    0.09308
         63    35 -108.878350 -108.403212    0.475138   1.000    0.02242    0.09225
         64    32 -108.888222 -108.415680    0.472543   1.000    0.02508    0.09157
         65    35 -108.898454 -108.425902    0.472551   1.000    0.02698    0.09097
         66    32 -108.904725 -108.432718    0.472007   1.000    0.02185    0.09094
         67    39 -108.915026 -108.446233    0.468793   1.000    0.02352    0.09029
         68    38 -108.920135 -108.446154    0.473981   1.000    0.01962    0.08962
         69    40 -108.926279 -108.449960    0.476318   1.000    0.02035    0.08874
         70    40 -108.932778 -108.454444    0.478334   1.000    0.02173    0.08752
         71    38 -108.937517 -108.463606    0.473911   1.000    0.02578    0.08511
         72    36 -108.941592 -108.489013    0.452579   1.000    0.03715    0.08111
         73    35 -108.945159 -108.532459    0.412700   1.000    0.04526    0.07717
         74    35 -108.948958 -108.573542    0.375416   1.000    0.05274    0.07261
         75    32 -108.953309 -108.625856    0.327453   1.000    0.05507    0.06765
         76    32 -108.958240 -108.686463    0.271777   1.000    0.05113    0.06546
         77    32 -108.962728 -108.730761    0.231967   1.000    0.04569    0.06445
         78    34 -108.966016 -108.757538    0.208478   1.000    0.03989    0.06377
         79    32 -108.968441 -108.768681    0.199760   1.000    0.03289    0.06309
         80    37 -108.971346 -108.768100    0.203245   1.000    0.02685    0.06235
         81    40 -108.973974 -108.767868    0.206107   1.000    0.02303    0.06095
         82    38 -108.976614 -108.760258    0.216356   1.000    0.02016    0.05885
         83    38 -108.979240 -108.749994    0.229247   1.000    0.01807    0.05696
         84    37 -108.981957 -108.739018    0.242940   1.000    0.01655    0.05543
         85    38 -108.985232 -108.733355    0.251877   1.000    0.01537    0.05427
         86    37 -108.988367 -108.730235    0.258132   1.000    0.01453    0.05353
         87    37 -108.991810 -108.732100    0.259710   1.000    0.01341    0.05301
         88    34 -108.995221 -108.734663    0.260558   1.000    0.01237    0.05257
         89    38 -108.998899 -108.739047    0.259853   1.000    0.01153    0.05199
         90    40 -109.002187 -108.743856    0.258331   1.000    0.01144    0.05125
         91    40 -109.005119 -108.751101    0.254017   1.000    0.01171    0.05035
         92    40 -109.007423 -108.761124    0.246298   1.000    0.01205    0.04937
         93    40 -109.009639 -108.774053    0.235586   1.000    0.01222    0.04833
         94    41 -109.011946 -108.789062    0.222884   1.000    0.01229    0.04729
         95    41 -109.014107 -108.804766    0.209341   1.000    0.01197    0.04627
         96    41 -109.016365 -108.819615    0.196749   1.000    0.01177    0.04523
         97    38 -109.018546 -108.832679    0.185867   1.000    0.01204    0.04411
         98    37 -109.020685 -108.843316    0.177370   1.000    0.01297    0.04288
         99    34 -109.022494 -108.851679    0.170815   1.000    0.01434    0.04151
        100    32 -109.024186 -108.858455    0.165731   1.000    0.01604    0.04002
        101    32 -109.025764 -108.863717    0.162047   1.000    0.01787    0.03844
        102    34 -109.027143 -108.867866    0.159277   1.000    0.01957    0.03681
        103    33 -109.028612 -108.871674    0.156938   1.000    0.02108    0.03513
        104    34 -109.029924 -108.876474    0.153451   1.000    0.02223    0.03337
        105    34 -109.031339 -108.883952    0.147387   1.000    0.02301    0.03152
        106    34 -109.032678 -108.892305    0.140373   1.000    0.02363    0.02964
        107    33 -109.033655 -108.899950    0.133706   1.000    0.02445    0.02776
        108    34 -109.034595 -108.908245    0.126350   1.000    0.02493    0.02588
        109    34 -109.035294 -108.916863    0.118432   1.000    0.02516    0.02413
        110    33 -109.035736 -108.926039    0.109697   1.000    0.02493    0.02255
        111    34 -109.036059 -108.934645    0.101414   1.000    0.02469    0.02116
        112    34 -109.036321 -108.943258    0.093062   1.000    0.02447    0.01995
        113    34 -109.036102 -108.951202    0.084900   1.000    0.02418    0.01895
        114    34 -109.036094 -108.958406    0.077688   1.000    0.02380    0.01812
        115    35 -109.035644 -108.964224    0.071421   1.000    0.02310    0.01741
        116    34 -109.035195 -108.969032    0.066164   1.000    0.02206    0.01676
        117    35 -109.034404 -108.972869    0.061535   1.000    0.02055    0.01612
        118    35 -109.033614 -108.976392    0.057222   1.000    0.01867    0.01543
        119    35 -109.032475 -108.979733    0.052742   1.000    0.01641    0.01471
        120    34 -109.031483 -108.984525    0.046958   1.000    0.01430    0.01391
        121    30 -109.030380 -108.990090    0.040290   1.000    0.01204    0.01316
        122    30 -109.028805 -108.995276    0.033529   1.000    0.00947    0.01234
        123    30 -109.028614 -108.999920    0.028694   1.000    0.00843    0.01128
        124    30 -109.027599 -109.002478    0.025121   1.000    0.00768    0.01031
        125    32 -109.027677 -109.005240    0.022438   1.000    0.00694    0.00941
        126    31 -109.027216 -109.006636    0.020580   1.000    0.00657    0.00852
        127    32 -109.027048 -109.007343    0.019704   1.000    0.00617    0.00768
        128    31 -109.026647 -109.007545    0.019102   1.000    0.00597    0.00692
        129    30 -109.026450 -109.007475    0.018975   1.000    0.00569    0.00621
        130    30 -109.026230 -109.007021    0.019209   1.000    0.00556    0.00559
        131    32 -109.026212 -109.006372    0.019841   1.000    0.00545    0.00506
        132    32 -109.026222 -109.005617    0.020605   1.000    0.00539    0.00466
        133    38 -109.026340 -109.005030    0.021310   1.000    0.00533    0.00438
        134    33 -109.026423 -109.004637    0.021785   1.000    0.00528    0.00416
        135    38 -109.026517 -109.004814    0.021703   1.000    0.00526    0.00400
        136    38 -109.026690 -109.005380    0.021310   1.000    0.00520    0.00383
        137    38 -109.026809 -109.006195    0.020614   1.000    0.00518    0.00367
        138    38 -109.026909 -109.007324    0.019585   1.000    0.00513    0.00352
        139    38 -109.026993 -109.008833    0.018160   1.000    0.00511    0.00337
        140    38 -109.027047 -109.010425    0.016622   1.000    0.00508    0.00320
        141    38 -109.027078 -109.012153    0.014925   1.000    0.00506    0.00305
        142    38 -109.027084 -109.013959    0.013125   1.000    0.00503    0.00285
        143    38 -109.027076 -109.015331    0.011745   1.000    0.00496    0.00279
        144    38 -109.027038 -109.017168    0.009870   1.000    0.00484    0.00279
        145    34 -109.026942 -109.018835    0.008107   1.000    0.00468    0.00266
        146    35 -109.026813 -109.019718    0.007094   1.000    0.00442    0.00285
        147    38 -109.026661 -109.021641    0.005021   1.000    0.00416    0.00278
        148    38 -109.026430 -109.021969    0.004460   1.000    0.00403    0.00274
        149    38 -109.026210 -109.023191    0.003019   1.000    0.00393    0.00283
        150    40 -109.026049 -109.024972    0.001077   1.000    0.00402    0.00272
        151    41 -109.025876 -109.026289    0.000413   1.000    0.00432    0.00248
        152    41 -109.025638 -109.026959    0.001322   1.000    0.00461    0.00222
        153    42 -109.025461 -109.027569    0.002109   1.000    0.00470    0.00202
        154    41 -109.025313 -109.027817    0.002504   1.000    0.00459    0.00194
        155    41 -109.025212 -109.027828    0.002615   1.000    0.00433    0.00197
        156    38 -109.025135 -109.027539    0.002404   1.000    0.00403    0.00203
        157    37 -109.025099 -109.027041    0.001942   1.000    0.00375    0.00210
        158    37 -109.025104 -109.026455    0.001351   1.000    0.00351    0.00216
        159    38 -109.025151 -109.025921    0.000770   1.000    0.00332    0.00222
        160    41 -109.025225 -109.025615    0.000389   1.000    0.00315    0.00221
        161    41 -109.025315 -109.025579    0.000264   1.000    0.00303    0.00215
        162    41 -109.025401 -109.025752    0.000351   1.000    0.00293    0.00206
        163    41 -109.025460 -109.025906    0.000446   1.000    0.00287    0.00194
        164    42 -109.025473 -109.026460    0.000987   1.000    0.00279    0.00178
        165    42 -109.025439 -109.026934    0.001494   1.000    0.00272    0.00165
        166    42 -109.025353 -109.027357    0.002004   1.000    0.00269    0.00150
        167    42 -109.025252 -109.027694    0.002442   1.000    0.00272    0.00130
        168    42 -109.025160 -109.027987    0.002826   1.000    0.00273    0.00110
        169    42 -109.025097 -109.028294    0.003197   1.000    0.00275    0.00091
        170    42 -109.025031 -109.028264    0.003233   1.000    0.00277    0.00081
        171    42 -109.024988 -109.028089    0.003101   1.000    0.00275    0.00078
        172    42 -109.024964 -109.027612    0.002648   1.000    0.00267    0.00083
        173    41 -109.024992 -109.027077    0.002085   1.000    0.00252    0.00089
        174    41 -109.025020 -109.026358    0.001338   1.000    0.00238    0.00093
        175    41 -109.025027 -109.025420    0.000393   1.000    0.00229    0.00095
        176    41 -109.025030 -109.024393    0.000637   1.000    0.00224    0.00096
        177    41 -109.025041 -109.023294    0.001747   1.000    0.00221    0.00096
        178    41 -109.025068 -109.022258    0.002810   1.000    0.00219    0.00095
        179    41 -109.025112 -109.021379    0.003733   1.000    0.00218    0.00094
        180    41 -109.025169 -109.020751    0.004418   1.000    0.00219    0.00093
        181    41 -109.025238 -109.020402    0.004836   1.000    0.00220    0.00090
        182    42 -109.025313 -109.020328    0.004986   1.000    0.00217    0.00088
        183    42 -109.025384 -109.020583    0.004800   1.000    0.00211    0.00090
        184    42 -109.025534 -109.021232    0.004301   1.000    0.00199    0.00085
        185    42 -109.025603 -109.021754    0.003849   1.000    0.00194    0.00080
        186    42 -109.025665 -109.022428    0.003237   1.000    0.00189    0.00074
        187    42 -109.025678 -109.022968    0.002710   1.000    0.00186    0.00069
        188    42 -109.025681 -109.023516    0.002165   1.000    0.00184    0.00065
        189    42 -109.025665 -109.024020    0.001645   1.000    0.00183    0.00063
        190    42 -109.025645 -109.024579    0.001067   1.000    0.00182    0.00062
        191    42 -109.025618 -109.025176    0.000442   1.000    0.00182    0.00063
        192    42 -109.025586 -109.025811    0.000226   1.000    0.00181    0.00064
        193    42 -109.025545 -109.026416    0.000871   1.000    0.00181    0.00066
        194    42 -109.025497 -109.026935    0.001437   1.000    0.00179    0.00068
        195    42 -109.025443 -109.027308    0.001865   1.000    0.00178    0.00069
        196    42 -109.025385 -109.027510    0.002125   1.000    0.00176    0.00070
        197    42 -109.025327 -109.027538    0.002210   1.000    0.00174    0.00070
        198    42 -109.025274 -109.027415    0.002141   1.000    0.00173    0.00069
        199    42 -109.025228 -109.027178    0.001949   1.000    0.00172    0.00067
        200    42 -109.025192 -109.026869    0.001677   1.000    0.00171    0.00065
        201    42 -109.025165 -109.026528    0.001364   1.000    0.00170    0.00063
        202    42 -109.025146 -109.026188    0.001043   1.000    0.00170    0.00060
        203    42 -109.025134 -109.025872    0.000738   1.000    0.00169    0.00058
        204    42 -109.025128 -109.025592    0.000463   1.000    0.00169    0.00056
        205    42 -109.025127 -109.025351    0.000224   1.000    0.00168    0.00055
        206    42 -109.025129 -109.025148    0.000019   1.000    0.00167    0.00054
        207    42 -109.025135 -109.024976    0.000158   1.000    0.00166    0.00054
        208    42 -109.025143 -109.024828    0.000315   1.000    0.00165    0.00054
        209    42 -109.025154 -109.024697    0.000457   1.000    0.00164    0.00055
        210    42 -109.025166 -109.024578    0.000588   1.000    0.00162    0.00055
        211    42 -109.025181 -109.024471    0.000710   1.000    0.00161    0.00055
        212    42 -109.025195 -109.024375    0.000820   1.000    0.00160    0.00056
        213    42 -109.025210 -109.024292    0.000918   1.000    0.00158    0.00056
        214    42 -109.025224 -109.024226    0.000998   1.000    0.00157    0.00055
        215    42 -109.025237 -109.024179    0.001058   1.000    0.00157    0.00055
        216    42 -109.025248 -109.024154    0.001094   1.000    0.00156    0.00054
        217    42 -109.025259 -109.024153    0.001106   1.000    0.00155    0.00054
        218    42 -109.025268 -109.024176    0.001092   1.000    0.00155    0.00053
        219    42 -109.025275 -109.024222    0.001052   1.000    0.00154    0.00054
        220    42 -109.025281 -109.024432    0.000849   1.000    0.00154    0.00053
        221    42 -109.025277 -109.024558    0.000719   1.000    0.00154    0.00052
        222    42 -109.025270 -109.024749    0.000521   1.000    0.00155    0.00052
        223    42 -109.025263 -109.024948    0.000315   1.000    0.00155    0.00051
        224    42 -109.025255 -109.025173    0.000082   1.000    0.00155    0.00050
        225    42 -109.025245 -109.025377    0.000133   1.000    0.00155    0.00048
        226    42 -109.025230 -109.025556    0.000326   1.000    0.00154    0.00047
        227    42 -109.025213 -109.025686    0.000473   1.000    0.00153    0.00046
        228    42 -109.025194 -109.025769    0.000575   1.000    0.00152    0.00044
        229    42 -109.025175 -109.025802    0.000627   1.000    0.00151    0.00043
        230    42 -109.025155 -109.025791    0.000635   1.000    0.00150    0.00041
        231    42 -109.025137 -109.025740    0.000603   1.000    0.00150    0.00040
        232    42 -109.025119 -109.025658    0.000538   1.000    0.00149    0.00039
        233    42 -109.025105 -109.025554    0.000449   1.000    0.00148    0.00038
        234    42 -109.025093 -109.025439    0.000346   1.000    0.00148    0.00037
        235    42 -109.025085 -109.025322    0.000237   1.000    0.00147    0.00037
        236    42 -109.025080 -109.025211    0.000130   1.000    0.00146    0.00036
        237    42 -109.025079 -109.025110    0.000031   1.000    0.00146    0.00036
        238    42 -109.025079 -109.025022    0.000057   1.000    0.00145    0.00035
        239    42 -109.025081 -109.024947    0.000134   1.000    0.00144    0.00034
        240    42 -109.025084 -109.024886    0.000199   1.000    0.00143    0.00034
        241    42 -109.025089 -109.024837    0.000252   1.000    0.00142    0.00033
        242    42 -109.025093 -109.024800    0.000294   1.000    0.00142    0.00032
        243    47 -109.025097 -109.024776    0.000321   1.000    0.00141    0.00031
        244    42 -109.025103 -109.024754    0.000349   1.000    0.00141    0.00030
        245    47 -109.025104 -109.024755    0.000349   1.000    0.00140    0.00029
        246    47 -109.025109 -109.024752    0.000357   1.000    0.00140    0.00028
        247    47 -109.025111 -109.024768    0.000343   1.000    0.00140    0.00027
        248    47 -109.025113 -109.024785    0.000327   1.000    0.00137    0.00028
        249    47 -109.025116 -109.024933    0.000183   1.000    0.00134    0.00053
        250    42 -109.025132 -109.025570    0.000439   1.000    0.00126    0.00055
        251    42 -109.025127 -109.026011    0.000884   1.000    0.00123    0.00047
        252    42 -109.025119 -109.026443    0.001323   1.000    0.00122    0.00047
        253    42 -109.025103 -109.026561    0.001458   1.000    0.00122    0.00048
        254    42 -109.025089 -109.026574    0.001485   1.000    0.00122    0.00046
        255    42 -109.025070 -109.026399    0.001329   1.000    0.00123    0.00043
        256    42 -109.025046 -109.026180    0.001134   1.000    0.00120    0.00047
        257    42 -109.025026 -109.026152    0.001127   1.000    0.00119    0.00044
        258    41 -109.025001 -109.026108    0.001108   1.000    0.00120    0.00041
        259    41 -109.024967 -109.025953    0.000986   1.000    0.00121    0.00038
        260    41 -109.024941 -109.025827    0.000887   1.000    0.00121    0.00036
        261    41 -109.024918 -109.025636    0.000718   1.000    0.00121    0.00034
        262    41 -109.024899 -109.025443    0.000544   1.000    0.00120    0.00031
        263    42 -109.024884 -109.025240    0.000356   1.000    0.00119    0.00028
        264    43 -109.024875 -109.025060    0.000186   1.000    0.00118    0.00026
        265    43 -109.024872 -109.024897    0.000025   1.000    0.00116    0.00024
        266    43 -109.024874 -109.024756    0.000118   1.000    0.00113    0.00024
        267    43 -109.024881 -109.024636    0.000245   1.000    0.00111    0.00024
        268    43 -109.024890 -109.024545    0.000345   1.000    0.00109    0.00025
        269    42 -109.024900 -109.024485    0.000415   1.000    0.00107    0.00024
        270    42 -109.024911 -109.024462    0.000449   1.000    0.00105    0.00023
        271    42 -109.024923 -109.024471    0.000452   1.000    0.00104    0.00022
        272    43 -109.024935 -109.024508    0.000427   1.000    0.00103    0.00020
        273    43 -109.024946 -109.024565    0.000381   1.000    0.00102    0.00018
        274    43 -109.024955 -109.024633    0.000322   1.000    0.00101    0.00018
        275    43 -109.024962 -109.024707    0.000255   1.000    0.00100    0.00018
        276    43 -109.024967 -109.024780    0.000187   1.000    0.00099    0.00018
        277    43 -109.024969 -109.024847    0.000121   1.000    0.00098    0.00019
        278    43 -109.024968 -109.024907    0.000061   1.000    0.00097    0.00019
        279    43 -109.024965 -109.024958    0.000007   1.000    0.00097    0.00019
        280    43 -109.024960 -109.025000    0.000040   1.000    0.00096    0.00018
        281    46 -109.024954 -109.025034    0.000080   1.000    0.00096    0.00017
        282    47 -109.024946 -109.025062    0.000115   1.000    0.00095    0.00015
        283    47 -109.024939 -109.025083    0.000145   1.000    0.00095    0.00014
        284    47 -109.024932 -109.025101    0.000170   1.000    0.00094    0.00013
        285    47 -109.024924 -109.025114    0.000190   1.000    0.00094    0.00013
        286    47 -109.024918 -109.025124    0.000206   1.000    0.00093    0.00013
        287    47 -109.024911 -109.025128    0.000217   1.000    0.00093    0.00014
        288    48 -109.024906 -109.025129    0.000223   1.000    0.00092    0.00014
        289    47 -109.024900 -109.025126    0.000226   1.000    0.00091    0.00015
        290    47 -109.024895 -109.025120    0.000224   1.000    0.00091    0.00015
        291    47 -109.024891 -109.025111    0.000220   1.000    0.00090    0.00015
        292    43 -109.024887 -109.025101    0.000213   1.000    0.00090    0.00014
        293    43 -109.024883 -109.025087    0.000203   1.000    0.00090    0.00013
        294    43 -109.024880 -109.025072    0.000193   1.000    0.00089    0.00013
        295    43 -109.024876 -109.025054    0.000178   1.000    0.00089    0.00012
        296    43 -109.024873 -109.025035    0.000162   1.000    0.00089    0.00012
        297    43 -109.024870 -109.025011    0.000141   1.000    0.00088    0.00011
        298    43 -109.024867 -109.024985    0.000118   1.000    0.00088    0.00011
        299    43 -109.024865 -109.024956    0.000091   1.000    0.00087    0.00012
        300    43 -109.024863 -109.024924    0.000061   1.000    0.00087    0.00012
        301    47 -109.024861 -109.024890    0.000029   1.000    0.00086    0.00012
        302    43 -109.024861 -109.024858    0.000003   1.000    0.00086    0.00012
        303    47 -109.024860 -109.024824    0.000036   1.000    0.00085    0.00012
        304    47 -109.024861 -109.024795    0.000066   1.000    0.00084    0.00011
        305    47 -109.024861 -109.024768    0.000093   1.000    0.00084    0.00011
        306    47 -109.024863 -109.024748    0.000115   1.000    0.00083    0.00011
        307    47 -109.024864 -109.024733    0.000131   1.000    0.00083    0.00010
        308    47 -109.024866 -109.024725    0.000141   1.000    0.00082    0.00010
        309    47 -109.024867 -109.024724    0.000143   1.000    0.00082    0.00010
        310    47 -109.024869 -109.024730    0.000138   1.000    0.00081    0.00010
        311    47 -109.024870 -109.024743    0.000127   1.000    0.00081    0.00010
        312    47 -109.024871 -109.024762    0.000108   1.000    0.00080    0.00011
        313    47 -109.024871 -109.024786    0.000085   1.000    0.00080    0.00011
        314    47 -109.024870 -109.024814    0.000057   1.000    0.00079    0.00010
        315    47 -109.024869 -109.024844    0.000025   1.000    0.00079    0.00010
        316    47 -109.024867 -109.024875    0.000007   1.000    0.00078    0.00010
        317    47 -109.024865 -109.024905    0.000040   1.000    0.00078    0.00010
        318    47 -109.024862 -109.024933    0.000071   1.000    0.00078    0.00010
        319    43 -109.024859 -109.024958    0.000100   1.000    0.00078    0.00010
        320    43 -109.024855 -109.024978    0.000124   1.000    0.00077    0.00011
        321    43 -109.024850 -109.024993    0.000143   1.000    0.00077    0.00011
        322    43 -109.024846 -109.025002    0.000156   1.000    0.00077    0.00011
        323    47 -109.024842 -109.025004    0.000162   1.000    0.00077    0.00011
        324    42 -109.024838 -109.025000    0.000162   1.000    0.00076    0.00011
        325    42 -109.024834 -109.024989    0.000155   1.000    0.00076    0.00011
        326    42 -109.024830 -109.024974    0.000144   1.000    0.00076    0.00011
        327    42 -109.024827 -109.024954    0.000127   1.000    0.00076    0.00010
        328    42 -109.024825 -109.024930    0.000106   1.000    0.00075    0.00010
        329    42 -109.024822 -109.024905    0.000082   1.000    0.00075    0.00010
        330    42 -109.024821 -109.024878    0.000057   1.000    0.00075    0.00010
        331    42 -109.024820 -109.024852    0.000032   1.000    0.00075    0.00010
        332    42 -109.024819 -109.024828    0.000009   1.000    0.00074    0.00010
        333    44 -109.024819 -109.024806    0.000014   1.000    0.00074    0.00010
        334    42 -109.024819 -109.024787    0.000032   1.000    0.00074    0.00010
        335    42 -109.024820 -109.024772    0.000048   1.000    0.00073    0.00010
        336    42 -109.024820 -109.024761    0.000059   1.000    0.00073    0.00010
        337    42 -109.024821 -109.024754    0.000067   1.000    0.00073    0.00010
        338    42 -109.024821 -109.024752    0.000069   1.000    0.00072    0.00010
        339    42 -109.024821 -109.024753    0.000069   1.000    0.00072    0.00010
        340    42 -109.024822 -109.024757    0.000065   1.000    0.00072    0.00010
        341    42 -109.024822 -109.024764    0.000057   1.000    0.00072    0.00010
        342    42 -109.024822 -109.024774    0.000048   1.000    0.00071    0.00010
        343    42 -109.024821 -109.024784    0.000037   1.000    0.00071    0.00010
        344    42 -109.024821 -109.024795    0.000025   1.000    0.00071    0.00010
        345    42 -109.024820 -109.024806    0.000013   1.000    0.00071    0.00010
        346    42 -109.024818 -109.024817    0.000001   1.000    0.00071    0.00010
        347    42 -109.024817 -109.024827    0.000010   1.000    0.00070    0.00009
        348    42 -109.024816 -109.024835    0.000020   1.000    0.00070    0.00009
        349    42 -109.024814 -109.024842    0.000028   1.000    0.00070    0.00009
        350    42 -109.024813 -109.024847    0.000035   1.000    0.00070    0.00009
        351    42 -109.024811 -109.024850    0.000039   1.000    0.00070    0.00009
        352    42 -109.024809 -109.024852    0.000043   1.000    0.00070    0.00009
        353    42 -109.024808 -109.024852    0.000044   1.000    0.00069    0.00009
        354    42 -109.024806 -109.024850    0.000045   1.000    0.00069    0.00009
        355    42 -109.024804 -109.024848    0.000043   1.000    0.00069    0.00009
        356    42 -109.024803 -109.024844    0.000042   1.000    0.00069    0.00009
        357    41 -109.024802 -109.024840    0.000038   1.000    0.00069    0.00009
        358    42 -109.024800 -109.024835    0.000036   1.000    0.00069    0.00009
        359    42 -109.024798 -109.024830    0.000031   1.000    0.00068    0.00009
        360    42 -109.024797 -109.024825    0.000028   1.000    0.00068    0.00009
        361    41 -109.024796 -109.024819    0.000023   1.000    0.00068    0.00008
        362    42 -109.024795 -109.024815    0.000019   1.000    0.00068    0.00008
        363    41 -109.024794 -109.024809    0.000015   1.000    0.00068    0.00008
        364    42 -109.024793 -109.024805    0.000012   1.000    0.00068    0.00008
        365    42 -109.024793 -109.024800    0.000007   1.000    0.00068    0.00008
        366    42 -109.024792 -109.024797    0.000005   1.000    0.00067    0.00008
        367    42 -109.024791 -109.024793    0.000001   1.000    0.00067    0.00008
        368    42 -109.024791 -109.024790    0.000001   1.000    0.00067    0.00008
        369    42 -109.024791 -109.024787    0.000004   1.000    0.00067    0.00008
        370    42 -109.024790 -109.024785    0.000005   1.000    0.00067    0.00008
        371    42 -109.024790 -109.024782    0.000007   1.000    0.00067    0.00008
        372    42 -109.024789 -109.024781    0.000008   1.000    0.00067    0.00008
        373    43 -109.024789 -109.024780    0.000010   1.000    0.00067    0.00008
        374    42 -109.024789 -109.024779    0.000010   1.000    0.00066    0.00007
        375    42 -109.024788 -109.024779    0.000010   1.000    0.00066    0.00007
        376    42 -109.024788 -109.024779    0.000009   1.000    0.00066    0.00007
        377    42 -109.024788 -109.024780    0.000008   1.000    0.00066    0.00007
        378    42 -109.024787 -109.024781    0.000006   1.000    0.00066    0.00007
        379    42 -109.024787 -109.024782    0.000004   1.000    0.00066    0.00007
        380    42 -109.024786 -109.024784    0.000002   1.000    0.00066    0.00007
        381    42 -109.024785 -109.024786    0.000001   1.000    0.00066    0.00007
        382    42 -109.024785 -109.024788    0.000004   1.000    0.00066    0.00007
        383    42 -109.024784 -109.024790    0.000006   1.000    0.00066    0.00007
        384    42 -109.024783 -109.024793    0.000010   1.000    0.00066    0.00007
        385    44 -109.024782 -109.024794    0.000012   1.000    0.00065    0.00006
        386    42 -109.024781 -109.024796    0.000015   1.000    0.00065    0.00006
        387    42 -109.024781 -109.024797    0.000017   1.000    0.00065    0.00006
        388    42 -109.024780 -109.024798    0.000018   1.000    0.00065    0.00006
        389    42 -109.024779 -109.024798    0.000019   1.000    0.00065    0.00006
        390    42 -109.024778 -109.024798    0.000020   1.000    0.00065    0.00006
        391    43 -109.024777 -109.024797    0.000020   1.000    0.00065    0.00006
        392    42 -109.024777 -109.024796    0.000020   1.000    0.00065    0.00006
        393    42 -109.024776 -109.024795    0.000019   1.000    0.00065    0.00006
        394    42 -109.024775 -109.024793    0.000017   1.000    0.00065    0.00006
        395    43 -109.024774 -109.024790    0.000016   1.000    0.00065    0.00006
        396    42 -109.024774 -109.024788    0.000014   1.000    0.00065    0.00005
        397    44 -109.024773 -109.024785    0.000012   1.000    0.00065    0.00005
        398    44 -109.024773 -109.024783    0.000010   1.000    0.00064    0.00005
        399    47 -109.024772 -109.024780    0.000008   1.000    0.00064    0.00005
        400    44 -109.024772 -109.024778    0.000006   1.000    0.00064    0.00005
        401    43 -109.024772 -109.024776    0.000004   1.000    0.00064    0.00005
        402    47 -109.024771 -109.024775    0.000003   1.000    0.00064    0.00005
        403    44 -109.024771 -109.024773    0.000002   1.000    0.00064    0.00005
        404    46 -109.024771 -109.024772    0.000002   1.000    0.00064    0.00005
        405    44 -109.024771 -109.024772    0.000001   1.000    0.00064    0.00005
        406    47 -109.024770 -109.024772    0.000001   1.000    0.00064    0.00005
        407    43 -109.024770 -109.024772    0.000002   1.000    0.00064    0.00005
        408    47 -109.024769 -109.024772    0.000003   1.000    0.00064    0.00005
        409    44 -109.024769 -109.024773    0.000003   1.000    0.00064    0.00004
        410    49 -109.024769 -109.024773    0.000005   1.000    0.00064    0.00004
        411    44 -109.024769 -109.024774    0.000006   1.000    0.00064    0.00004
        412    47 -109.024768 -109.024775    0.000007   1.000    0.00064    0.00004
        413    49 -109.024768 -109.024776    0.000008   1.000    0.00064    0.00004
        414    47 -109.024767 -109.024777    0.000010   1.000    0.00063    0.00004
        415    49 -109.024767 -109.024778    0.000010   1.000    0.00063    0.00004
        416    47 -109.024766 -109.024779    0.000012   1.000    0.00063    0.00004
        417    49 -109.024766 -109.024779    0.000012   1.000    0.00063    0.00004
        418    47 -109.024766 -109.024779    0.000014   1.000    0.00063    0.00004
        419    49 -109.024765 -109.024779    0.000014   1.000    0.00063    0.00004
        420    47 -109.024765 -109.024779    0.000015   1.000    0.00063    0.00004
        421    49 -109.024764 -109.024779    0.000014   1.000    0.00063    0.00004
        422    49 -109.024764 -109.024779    0.000015   1.000    0.00063    0.00004
        423    49 -109.024764 -109.024778    0.000014   1.000    0.00063    0.00003
        424    48 -109.024763 -109.024777    0.000014   1.000    0.00063    0.00003
        425    49 -109.024763 -109.024777    0.000014   1.000    0.00063    0.00003
        426    49 -109.024762 -109.024776    0.000014   1.000    0.00063    0.00003
        427    49 -109.024762 -109.024775    0.000013   1.000    0.00063    0.00003
        428    49 -109.024762 -109.024775    0.000013   1.000    0.00063    0.00003
        429    49 -109.024761 -109.024774    0.000013   1.000    0.00063    0.00003
        430    50 -109.024761 -109.024773    0.000012   1.000    0.00063    0.00003
        431    50 -109.024761 -109.024773    0.000012   1.000    0.00063    0.00003
        432    49 -109.024761 -109.024772    0.000012   1.000    0.00063    0.00003
        433    49 -109.024760 -109.024772    0.000012   1.000    0.00063    0.00003
        434    49 -109.024760 -109.024772    0.000012   1.000    0.00063    0.00003
        435    49 -109.024760 -109.024771    0.000011   1.000    0.00062    0.00003
        436    49 -109.024759 -109.024771    0.000011   1.000    0.00062    0.00003
        437    50 -109.024759 -109.024771    0.000011   1.000    0.00062    0.00003
        438    49 -109.024759 -109.024771    0.000012   1.000    0.00062    0.00003
        439    49 -109.024759 -109.024770    0.000012   1.000    0.00062    0.00003
        440    50 -109.024759 -109.024770    0.000012   1.000    0.00062    0.00003
        441    49 -109.024758 -109.024770    0.000012   1.000    0.00062    0.00003
        442    50 -109.024758 -109.024770    0.000012   1.000    0.00062    0.00003
        443    49 -109.024758 -109.024771    0.000013   1.000    0.00062    0.00003
        444    50 -109.024758 -109.024771    0.000013   1.000    0.00062    0.00003
        445    49 -109.024757 -109.024771    0.000013   1.000    0.00062    0.00003
        446    49 -109.024757 -109.024771    0.000014   1.000    0.00062    0.00003
        447    50 -109.024757 -109.024771    0.000014   1.000    0.00062    0.00003
        448    49 -109.024757 -109.024771    0.000014   1.000    0.00062    0.00002
        449    49 -109.024757 -109.024771    0.000015   1.000    0.00062    0.00002
        450    49 -109.024756 -109.024771    0.000015   1.000    0.00062    0.00002
        451    50 -109.024756 -109.024771    0.000015   1.000    0.00062    0.00002
        452    49 -109.024756 -109.024771    0.000015   1.000    0.00062    0.00002
        453    49 -109.024756 -109.024771    0.000016   1.000    0.00062    0.00002
        454    49 -109.024755 -109.024771    0.000016   1.000    0.00062    0.00002
        455    50 -109.024755 -109.024771    0.000016   1.000    0.00062    0.00002
        456    50 -109.024755 -109.024771    0.000016   1.000    0.00062    0.00002
        457    50 -109.024755 -109.024771    0.000016   1.000    0.00062    0.00002
        458    50 -109.024754 -109.024771    0.000016   1.000    0.00061    0.00002
        459    49 -109.024754 -109.024770    0.000016   1.000    0.00061    0.00002
        460    50 -109.024754 -109.024770    0.000016   1.000    0.00061    0.00002
        461    50 -109.024754 -109.024770    0.000016   1.000    0.00061    0.00002
        462    50 -109.024754 -109.024770    0.000016   1.000    0.00061    0.00002
        463    50 -109.024754 -109.024769    0.000016   1.000    0.00061    0.00002
        464    49 -109.024753 -109.024769    0.000016   1.000    0.00061    0.00002
        465    51 -109.024753 -109.024769    0.000016   1.000    0.00061    0.00002
        466    48 -109.024753 -109.024769    0.000016   1.000    0.00061    0.00002
        467    49 -109.024753 -109.024768    0.000016   1.000    0.00061    0.00002
        468    49 -109.024753 -109.024768    0.000016   1.000    0.00061    0.00002
        469    49 -109.024753 -109.024768    0.000015   1.000    0.00061    0.00002
        470    48 -109.024752 -109.024768    0.000016   1.000    0.00061    0.00002
        471    49 -109.024752 -109.024768    0.000016   1.000    0.00061    0.00002
        472    49 -109.024752 -109.024768    0.000016   1.000    0.00061    0.00002
        473    50 -109.024752 -109.024768    0.000016   1.000    0.00061    0.00002
        474    48 -109.024752 -109.024768    0.000016   1.000    0.00061    0.00002
        475    50 -109.024752 -109.024768    0.000016   1.000    0.00061    0.00002
        476    50 -109.024752 -109.024768    0.000016   1.000    0.00061    0.00002
        477    50 -109.024751 -109.024768    0.000016   1.000    0.00061    0.00002
        478    49 -109.024751 -109.024768    0.000016   1.000    0.00061    0.00002
        479    49 -109.024751 -109.024768    0.000017   1.000    0.00061    0.00002
        480    50 -109.024751 -109.024768    0.000017   1.000    0.00061    0.00002
        481    50 -109.024751 -109.024768    0.000017   1.000    0.00061    0.00002
        482    49 -109.024751 -109.024768    0.000017   1.000    0.00061    0.00002
        483    50 -109.024751 -109.024768    0.000017   1.000    0.00060    0.00002
        484    49 -109.024750 -109.024768    0.000017   1.000    0.00060    0.00002
        485    49 -109.024750 -109.024768    0.000017   1.000    0.00060    0.00002
        486    49 -109.024750 -109.024767    0.000017   1.000    0.00060    0.00002
        487    49 -109.024750 -109.024767    0.000017   1.000    0.00060    0.00002
        488    49 -109.024750 -109.024767    0.000017   1.000    0.00060    0.00002
        489    49 -109.024750 -109.024767    0.000017   1.000    0.00060    0.00002
        490    49 -109.024750 -109.024767    0.000017   1.000    0.00060    0.00002
        491    49 -109.024750 -109.024767    0.000017   1.000    0.00060    0.00002
        492    49 -109.024749 -109.024767    0.000017   1.000    0.00060    0.00002
        493    49 -109.024749 -109.024766    0.000017   1.000    0.00060    0.00002
        494    49 -109.024749 -109.024766    0.000017   1.000    0.00060    0.00002
        495    49 -109.024749 -109.024766    0.000017   1.000    0.00060    0.00002
        496    49 -109.024749 -109.024766    0.000017   1.000    0.00060    0.00002
        497    50 -109.024749 -109.024766    0.000017   1.000    0.00060    0.00002
        498    49 -109.024749 -109.024766    0.000017   1.000    0.00060    0.00002
        499    50 -109.024749 -109.024765    0.000017   1.000    0.00060    0.00002

        ==> Orbital Optimization <==

            Orbital Optimization did not converge in  20 iterations 
            Total energy change: -3.767766e-02
            Final gradient norm: 9.464247e-05

        500    48 -109.062426 -109.004833    0.057593  24.977    0.00060    0.00002
        501   102 -109.065695 -108.604040    0.461656  24.977    0.00468    0.22019
        502    60 -109.066515 -108.706765    0.359750  24.977    0.00721    0.15146
        503    56 -109.066810 -108.889198    0.177612  24.977    0.00777    0.11165
        504    55 -109.066895 -109.068635    0.001740  24.977    0.00626    0.12370
        505    54 -109.066466 -109.197517    0.131051  24.977    0.00429    0.14483
        506    55 -109.066150 -109.269603    0.203454  24.977    0.00332    0.14545
        507    56 -109.065412 -109.285100    0.219687  24.977    0.00336    0.12946
        508    56 -109.064915 -109.289701    0.224786  24.977    0.00322    0.10939
        509    56 -109.064989 -109.285496    0.220507  24.977    0.00288    0.09809
        510    56 -109.065996 -109.280956    0.214960  24.977    0.00277    0.09735
        511    48 -109.066767 -109.257156    0.190389  24.977    0.00266    0.09982
        512    57 -109.067597 -109.228906    0.161309  24.977    0.00254    0.09937
        513    56 -109.068032 -109.196230    0.128197  24.977    0.00219    0.09590
        514    54 -109.068258 -109.176404    0.108146  24.977    0.00176    0.09203
        515    54 -109.068204 -109.176330    0.108126  24.977    0.00162    0.08939
        516    54 -109.068042 -109.198334    0.130292  24.977    0.00186    0.08714
        517    56 -109.067875 -109.220827    0.152952  24.977    0.00208    0.08520
        518    47 -109.067736 -109.249642    0.181906  24.977    0.00209    0.08295
        519    56 -109.067767 -109.266357    0.198589  24.977    0.00182    0.08076
        520    56 -109.067889 -109.271053    0.203165  24.977    0.00149    0.07897
        521    60 -109.067980 -109.258230    0.190250  24.977    0.00128    0.07753
        522    60 -109.068314 -109.234479    0.166165  24.977    0.00138    0.07565
        523    61 -109.068563 -109.192310    0.123747  24.977    0.00154    0.07368
        524    59 -109.068886 -109.147336    0.078450  24.977    0.00169    0.07191
        525    60 -109.069168 -109.102073    0.032905  24.977    0.00163    0.07069
        526    60 -109.069465 -109.066404    0.003061  24.977    0.00148    0.06981
        527    54 -109.069727 -109.046983    0.022744  24.977    0.00130    0.06870
        528    54 -109.069972 -109.042025    0.027948  24.977    0.00119    0.06734
        529    56 -109.070186 -109.047753    0.022433  24.977    0.00118    0.06585
        530    56 -109.070384 -109.061683    0.008700  24.977    0.00121    0.06443
        531    56 -109.070571 -109.078478    0.007907  24.977    0.00126    0.06321
        532    55 -109.070757 -109.093820    0.023063  24.977    0.00129    0.06208
        533    56 -109.070938 -109.105226    0.034288  24.977    0.00132    0.06102
        534    49 -109.071105 -109.115660    0.044555  24.977    0.00133    0.05992
        535    50 -109.071266 -109.121215    0.049948  24.977    0.00135    0.05877
        536    49 -109.071423 -109.124765    0.053341  24.977    0.00137    0.05751
        537    48 -109.071578 -109.126951    0.055372  24.977    0.00140    0.05616
        538    55 -109.071731 -109.129288    0.057557  24.977    0.00142    0.05479
        539    55 -109.071879 -109.132360    0.060481  24.977    0.00143    0.05350
        540    56 -109.072022 -109.136628    0.064606  24.977    0.00141    0.05236
        541    56 -109.072155 -109.142000    0.069845  24.977    0.00137    0.05143
        542    56 -109.072275 -109.150904    0.078629  24.977    0.00131    0.05095
        543    55 -109.072372 -109.164537    0.092164  24.977    0.00126    0.05033
        544    49 -109.072430 -109.169403    0.096973  24.977    0.00119    0.05027
        545    56 -109.072506 -109.186719    0.114213  24.977    0.00119    0.04936
        546    50 -109.072503 -109.187495    0.114992  24.977    0.00111    0.04865
        547    47 -109.072498 -109.194977    0.122479  24.977    0.00105    0.04806
        548    50 -109.072474 -109.195954    0.123480  24.977    0.00099    0.04748
        549    41 -109.072462 -109.198332    0.125870  24.977    0.00096    0.04685
        550    47 -109.072453 -109.196906    0.124453  24.977    0.00093    0.04616
        551    54 -109.072458 -109.194432    0.121974  24.977    0.00091    0.04542
        552    49 -109.072475 -109.189191    0.116717  24.977    0.00089    0.04467
        553    54 -109.072506 -109.182519    0.110013  24.977    0.00087    0.04392
        554    54 -109.072548 -109.174384    0.101836  24.977    0.00084    0.04319
        555    54 -109.072598 -109.165730    0.093132  24.977    0.00080    0.04250
        556    54 -109.072653 -109.157044    0.084390  24.977    0.00075    0.04185
        557    54 -109.072714 -109.149009    0.076296  24.977    0.00070    0.04124
        558    56 -109.072777 -109.142025    0.069248  24.977    0.00064    0.04067
        559    56 -109.072845 -109.136343    0.063499  24.977    0.00058    0.04014
        560    56 -109.072916 -109.132112    0.059196  24.977    0.00052    0.03963
        561    57 -109.072991 -109.129221    0.056230  24.977    0.00047    0.03916
        562    56 -109.073071 -109.128632    0.055561  24.977    0.00045    0.03866
        563    56 -109.073144 -109.128438    0.055294  24.977    0.00043    0.03814
        564    43 -109.073216 -109.129503    0.056287  24.977    0.00043    0.03762
        565    49 -109.073285 -109.130105    0.056821  24.977    0.00044    0.03710
        566    50 -109.073352 -109.130730    0.057378  24.977    0.00046    0.03657
        567    56 -109.073416 -109.131001    0.057585  24.977    0.00048    0.03601
        568    56 -109.073474 -109.131848    0.058374  24.977    0.00049    0.03543
        569    57 -109.073527 -109.133414    0.059887  24.977    0.00050    0.03485
        570    61 -109.073576 -109.135177    0.061601  24.977    0.00051    0.03431
        571    61 -109.073620 -109.136810    0.063190  24.977    0.00050    0.03384
        572    61 -109.073661 -109.138313    0.064651  24.977    0.00048    0.03343
        573    61 -109.073697 -109.139730    0.066033  24.977    0.00045    0.03306
        574    56 -109.073728 -109.141279    0.067552  24.977    0.00042    0.03287
        575    57 -109.073745 -109.145650    0.071904  24.977    0.00039    0.03247
        576    56 -109.073757 -109.145097    0.071340  24.977    0.00035    0.03210
        577    55 -109.073730 -109.146020    0.072290  24.977    0.00028    0.03174
        578    56 -109.073742 -109.146090    0.072348  24.977    0.00025    0.03135
        579    58 -109.073741 -109.146242    0.072502  24.977    0.00023    0.03099
        580    57 -109.073749 -109.145677    0.071929  24.977    0.00020    0.03063
        581    60 -109.073755 -109.144606    0.070851  24.977    0.00018    0.03028
        582    61 -109.073767 -109.143023    0.069255  24.977    0.00015    0.02993
        583    61 -109.073782 -109.141020    0.067238  24.977    0.00013    0.02958
        584    61 -109.073802 -109.138732    0.064929  24.977    0.00012    0.02922
        585    61 -109.073824 -109.136318    0.062494  24.977    0.00012    0.02886
        586    60 -109.073850 -109.133917    0.060068  24.977    0.00014    0.02850
        587    56 -109.073877 -109.131635    0.057759  24.977    0.00015    0.02814
        588    58 -109.073906 -109.129673    0.055767  24.977    0.00016    0.02780
        589    56 -109.073938 -109.128115    0.054177  24.977    0.00016    0.02746
        590    55 -109.073972 -109.126921    0.052948  24.977    0.00015    0.02713
        591    56 -109.074008 -109.125884    0.051876  24.977    0.00015    0.02681
        592    60 -109.074043 -109.124991    0.050949  24.977    0.00014    0.02650
        593    60 -109.074078 -109.124273    0.050195  24.977    0.00013    0.02620
        594    56 -109.074113 -109.123747    0.049635  24.977    0.00013    0.02591
        595    60 -109.074147 -109.123425    0.049278  24.977    0.00013    0.02561
        596    57 -109.074181 -109.123290    0.049109  24.977    0.00014    0.02532
        597    56 -109.074215 -109.123330    0.049115  24.977    0.00015    0.02502
        598    56 -109.074248 -109.123519    0.049271  24.977    0.00016    0.02473
        599    51 -109.074280 -109.123836    0.049556  24.977    0.00017    0.02444
        600    48 -109.074310 -109.124253    0.049943  24.977    0.00017    0.02416
        601    46 -109.074339 -109.124748    0.050409  24.977    0.00016    0.02388
        602    46 -109.074366 -109.125287    0.050921  24.977    0.00015    0.02362
        603    49 -109.074390 -109.125835    0.051445  24.977    0.00013    0.02336
        604    49 -109.074413 -109.126339    0.051926  24.977    0.00012    0.02311
        605    56 -109.074433 -109.126758    0.052326  24.977    0.00010    0.02286
        606    56 -109.074451 -109.127039    0.052588  24.977    0.00008    0.02262
        607    57 -109.074468 -109.127149    0.052681  24.977    0.00007    0.02237
        608    56 -109.074484 -109.127063    0.052578  24.977    0.00006    0.02213
        609    56 -109.074500 -109.126779    0.052279  24.977    0.00006    0.02189
        610    56 -109.074516 -109.126315    0.051798  24.977    0.00006    0.02165
        611    55 -109.074532 -109.125703    0.051171  24.977    0.00006    0.02141
        612    49 -109.074549 -109.124991    0.050442  24.977    0.00006    0.02118
        613    55 -109.074567 -109.124228    0.049661  24.977    0.00006    0.02096
        614    56 -109.074585 -109.123469    0.048883  24.977    0.00005    0.02074
        615    55 -109.074604 -109.122758    0.048154  24.977    0.00005    0.02052
        616    55 -109.074624 -109.122135    0.047511  24.977    0.00005    0.02031
        617    56 -109.074643 -109.121624    0.046981  24.977    0.00005    0.02010
        618    56 -109.074662 -109.121237    0.046574  24.977    0.00005    0.01989
        619    56 -109.074681 -109.120974    0.046293  24.977    0.00005    0.01968
        620    56 -109.074700 -109.120822    0.046122  24.977    0.00006    0.01948
        621    56 -109.074717 -109.120758    0.046041  24.977    0.00006    0.01928
        622    56 -109.074733 -109.120754    0.046020  24.977    0.00007    0.01908
        623    55 -109.074749 -109.120779    0.046031  24.977    0.00007    0.01888
        624    49 -109.074763 -109.120802    0.046040  24.977    0.00007    0.01869
        625    49 -109.074776 -109.120794    0.046018  24.977    0.00006    0.01850
        626    56 -109.074789 -109.120738    0.045949  24.977    0.00006    0.01831
        627    56 -109.074800 -109.120613    0.045813  24.977    0.00006    0.01813
        628    57 -109.074812 -109.120416    0.045605  24.977    0.00005    0.01795
        629    56 -109.074822 -109.120145    0.045323  24.977    0.00005    0.01777
        630    54 -109.074833 -109.119808    0.044975  24.977    0.00005    0.01759
        631    56 -109.074844 -109.119417    0.044573  24.977    0.00005    0.01742
        632    56 -109.074855 -109.118986    0.044131  24.977    0.00005    0.01725
        633    56 -109.074867 -109.118534    0.043668  24.977    0.00004    0.01708
        634    56 -109.074878 -109.118079    0.043200  24.977    0.00004    0.01691
        635    55 -109.074890 -109.117638    0.042747  24.977    0.00004    0.01675
        636    55 -109.074902 -109.117226    0.042323  24.977    0.00004    0.01658
        637    49 -109.074915 -109.116857    0.041942  24.977    0.00004    0.01642
        638    49 -109.074927 -109.116540    0.041613  24.977    0.00004    0.01627
        639    49 -109.074940 -109.116281    0.041341  24.977    0.00004    0.01611
        640    49 -109.074952 -109.116080    0.041128  24.977    0.00004    0.01596
        641    48 -109.074964 -109.115935    0.040972  24.977    0.00004    0.01581
        642    54 -109.074975 -109.115840    0.040865  24.977    0.00004    0.01566
        643    51 -109.074986 -109.115785    0.040799  24.977    0.00004    0.01551
        644    49 -109.074997 -109.115756    0.040759  24.977    0.00004    0.01536
        645    49 -109.075006 -109.115741    0.040734  24.977    0.00004    0.01522
        646    56 -109.075016 -109.115724    0.040708  24.977    0.00004    0.01508
        647    56 -109.075024 -109.115691    0.040666  24.977    0.00004    0.01494
        648    56 -109.075033 -109.115630    0.040597  24.977    0.00004    0.01480
        649    56 -109.075040 -109.115530    0.040490  24.977    0.00004    0.01467
        650    56 -109.075048 -109.115386    0.040338  24.977    0.00004    0.01453
        651    56 -109.075055 -109.115239    0.040184  24.977    0.00004    0.01440
        652    56 -109.075061 -109.115113    0.040051  24.977    0.00004    0.01427
        653    55 -109.075068 -109.114945    0.039877  24.977    0.00004    0.01414
        654    56 -109.075074 -109.114737    0.039662  24.977    0.00004    0.01401
        655    57 -109.075081 -109.114501    0.039421  24.977    0.00004    0.01388
        656    60 -109.075087 -109.114254    0.039166  24.977    0.00004    0.01375
        657    62 -109.075094 -109.113996    0.038902  24.977    0.00004    0.01363
        658    62 -109.075101 -109.113729    0.038629  24.977    0.00004    0.01351
        659    62 -109.075107 -109.113451    0.038344  24.977    0.00004    0.01338
        660    61 -109.075114 -109.113189    0.038075  24.977    0.00004    0.01327
        661    55 -109.075120 -109.113164    0.038044  24.977    0.00004    0.01315
        662    61 -109.075127 -109.112784    0.037657  24.977    0.00004    0.01303
        663    56 -109.075134 -109.112495    0.037362  24.977    0.00004    0.01292
        664    56 -109.075140 -109.112066    0.036927  24.977    0.00004    0.01281
        665    60 -109.075146 -109.111688    0.036542  24.977    0.00004    0.01269
        666    56 -109.075152 -109.111291    0.036139  24.977    0.00005    0.01258
        667    56 -109.075158 -109.110940    0.035782  24.977    0.00005    0.01247
        668    56 -109.075164 -109.110606    0.035442  24.977    0.00005    0.01237
        669    62 -109.075171 -109.110312    0.035141  24.977    0.00005    0.01226
        670    56 -109.075177 -109.110051    0.034874  24.977    0.00005    0.01215
        671    62 -109.075183 -109.109831    0.034648  24.977    0.00005    0.01205
        672    62 -109.075190 -109.109654    0.034465  24.977    0.00006    0.01195
        673    61 -109.075195 -109.109517    0.034322  24.977    0.00006    0.01184
        674    61 -109.075201 -109.109414    0.034213  24.977    0.00006    0.01174
        675    60 -109.075206 -109.109338    0.034131  24.977    0.00006    0.01164
        676    60 -109.075212 -109.109279    0.034067  24.977    0.00006    0.01155
        677    60 -109.075216 -109.109228    0.034011  24.977    0.00006    0.01145
        678    60 -109.075221 -109.109175    0.033954  24.977    0.00007    0.01135
        679    61 -109.075225 -109.109114    0.033888  24.977    0.00007    0.01126
        680    61 -109.075230 -109.109036    0.033806  24.977    0.00007    0.01117
        681    61 -109.075234 -109.108940    0.033706  24.977    0.00007    0.01107
        682    61 -109.075238 -109.108822    0.033584  24.977    0.00007    0.01098
        683    60 -109.075242 -109.108685    0.033443  24.977    0.00007    0.01089
        684    61 -109.075246 -109.108552    0.033306  24.977    0.00007    0.01080
        685    61 -109.075250 -109.108433    0.033183  24.977    0.00008    0.01071
        686    61 -109.075254 -109.108306    0.033053  24.977    0.00008    0.01063
        687    62 -109.075257 -109.108125    0.032868  24.977    0.00008    0.01054
        688    61 -109.075260 -109.107888    0.032628  24.977    0.00008    0.01045
        689    61 -109.075263 -109.107608    0.032345  24.977    0.00008    0.01037
        690    61 -109.075266 -109.107302    0.032036  24.977    0.00008    0.01028
        691    61 -109.075270 -109.106988    0.031718  24.977    0.00008    0.01020
        692    61 -109.075274 -109.106709    0.031435  24.977    0.00008    0.01011
        693    56 -109.075278 -109.106552    0.031274  24.977    0.00008    0.01003
        694    62 -109.075282 -109.106275    0.030993  24.977    0.00008    0.00995
        695    62 -109.075286 -109.106051    0.030765  24.977    0.00008    0.00988
        696    62 -109.075290 -109.105778    0.030488  24.977    0.00008    0.00980
        697    62 -109.075294 -109.105536    0.030242  24.977    0.00008    0.00973
        698    62 -109.075297 -109.105292    0.029995  24.977    0.00008    0.00965
        699    62 -109.075301 -109.105069    0.029768  24.977    0.00008    0.00958
        700    62 -109.075304 -109.104852    0.029548  24.977    0.00008    0.00951
        701    62 -109.075308 -109.104650    0.029342  24.977    0.00008    0.00943
        702    62 -109.075312 -109.104462    0.029150  24.977    0.00008    0.00936
        703    63 -109.075315 -109.104296    0.028981  24.977    0.00008    0.00929
        704    66 -109.075319 -109.104154    0.028835  24.977    0.00008    0.00922
        705    66 -109.075323 -109.104040    0.028717  24.977    0.00008    0.00915
        706    66 -109.075326 -109.103952    0.028626  24.977    0.00008    0.00908
        707    66 -109.075330 -109.103888    0.028558  24.977    0.00008    0.00901
        708    67 -109.075333 -109.103842    0.028509  24.977    0.00008    0.00894
        709    66 -109.075336 -109.103809    0.028473  24.977    0.00008    0.00888
        710    66 -109.075339 -109.103779    0.028440  24.977    0.00008    0.00881
        711    66 -109.075342 -109.103746    0.028405  24.977    0.00008    0.00875
        712    66 -109.075344 -109.103703    0.028359  24.977    0.00008    0.00869
        713    61 -109.075346 -109.103646    0.028299  24.977    0.00008    0.00863
        714    66 -109.075349 -109.103566    0.028218  24.977    0.00008    0.00857
        715    66 -109.075351 -109.103467    0.028116  24.977    0.00008    0.00851
        716    66 -109.075353 -109.103343    0.027990  24.977    0.00008    0.00845
        717    66 -109.075355 -109.103196    0.027840  24.977    0.00008    0.00839
        718    62 -109.075357 -109.103025    0.027668  24.977    0.00008    0.00833
        719    66 -109.075360 -109.102834    0.027475  24.977    0.00008    0.00828
        720    66 -109.075362 -109.102627    0.027265  24.977    0.00008    0.00822
        721    62 -109.075365 -109.102405    0.027041  24.977    0.00008    0.00817
        722    66 -109.075367 -109.102175    0.026808  24.977    0.00008    0.00811
        723    61 -109.075370 -109.101940    0.026570  24.977    0.00008    0.00806
        724    61 -109.075373 -109.101705    0.026333  24.977    0.00008    0.00800
        725    63 -109.075375 -109.101474    0.026099  24.977    0.00008    0.00795
        726    61 -109.075378 -109.101250    0.025872  24.977    0.00008    0.00790
        727    62 -109.075381 -109.101036    0.025654  24.977    0.00008    0.00785
        728    62 -109.075384 -109.100833    0.025449  24.977    0.00008    0.00780
        729    62 -109.075387 -109.100644    0.025257  24.977    0.00008    0.00775
        730    62 -109.075390 -109.100469    0.025079  24.977    0.00007    0.00770
        731    62 -109.075394 -109.100308    0.024915  24.977    0.00007    0.00766
        732    63 -109.075397 -109.100161    0.024765  24.977    0.00007    0.00761
        733    62 -109.075400 -109.100027    0.024627  24.977    0.00007    0.00756
        734    62 -109.075402 -109.099904    0.024502  24.977    0.00007    0.00752
        735    62 -109.075405 -109.099793    0.024388  24.977    0.00007    0.00747
        736    62 -109.075408 -109.099691    0.024283  24.977    0.00007    0.00743
        737    62 -109.075411 -109.099597    0.024186  24.977    0.00007    0.00738
        738    63 -109.075413 -109.099509    0.024096  24.977    0.00007    0.00734
        739    63 -109.075416 -109.099426    0.024010  24.977    0.00006    0.00729
        740    63 -109.075418 -109.099347    0.023929  24.977    0.00006    0.00725
        741    62 -109.075421 -109.099270    0.023850  24.977    0.00006    0.00721
        742    62 -109.075423 -109.099194    0.023771  24.977    0.00006    0.00717
        743    62 -109.075425 -109.099118    0.023693  24.977    0.00006    0.00713
        744    63 -109.075427 -109.099051    0.023624  24.977    0.00006    0.00709
        745    62 -109.075429 -109.098981    0.023552  24.977    0.00006    0.00705
        746    63 -109.075431 -109.098895    0.023464  24.977    0.00005    0.00701
        747    62 -109.075433 -109.098805    0.023372  24.977    0.00005    0.00697
        748    62 -109.075435 -109.098703    0.023268  24.977    0.00005    0.00693
        749    62 -109.075437 -109.098594    0.023158  24.977    0.00005    0.00689
        750    62 -109.075439 -109.098478    0.023040  24.977    0.00005    0.00685
        751    61 -109.075440 -109.098356    0.022916  24.977    0.00005    0.00682
        752    61 -109.075442 -109.098228    0.022785  24.977    0.00005    0.00678
        753    62 -109.075444 -109.098093    0.022649  24.977    0.00004    0.00674
        754    62 -109.075445 -109.097957    0.022512  24.977    0.00004    0.00671
        755    56 -109.075447 -109.097845    0.022398  24.977    0.00004    0.00667
        756    58 -109.075449 -109.097685    0.022236  24.977    0.00004    0.00664
        757    58 -109.075451 -109.097537    0.022086  24.977    0.00004    0.00660
        758    61 -109.075453 -109.097370    0.021918  24.977    0.00004    0.00657
        759    58 -109.075455 -109.097212    0.021757  24.977    0.00004    0.00653
        760    58 -109.075457 -109.097050    0.021594  24.977    0.00003    0.00650
        761    58 -109.075459 -109.096899    0.021440  24.977    0.00003    0.00646
        762    58 -109.075461 -109.096753    0.021292  24.977    0.00003    0.00643
        763    57 -109.075463 -109.096615    0.021152  24.977    0.00003    0.00640
        764    57 -109.075465 -109.096484    0.021019  24.977    0.00003    0.00636
        765    58 -109.075465 -109.096362    0.020898  24.977    0.00003    0.00633
        766    56 -109.075465 -109.096314    0.020848  24.977    0.00003    0.00630
        767    56 -109.075467 -109.096251    0.020784  24.977    0.00003    0.00626
        768    56 -109.075468 -109.096155    0.020687  24.977    0.00003    0.00623
        769    56 -109.075470 -109.096028    0.020557  24.977    0.00003    0.00620
        770    56 -109.075472 -109.095880    0.020407  24.977    0.00003    0.00616
        771    56 -109.075475 -109.095722    0.020247  24.977    0.00003    0.00613
        772    56 -109.075477 -109.095560    0.020083  24.977    0.00003    0.00610
        773    51 -109.075479 -109.095402    0.019923  24.977    0.00003    0.00607
        774    57 -109.075481 -109.095247    0.019766  24.977    0.00003    0.00603
        775    49 -109.075482 -109.095100    0.019618  24.977    0.00003    0.00600
        776    49 -109.075484 -109.094957    0.019473  24.977    0.00003    0.00597
        777    49 -109.075485 -109.094821    0.019335  24.977    0.00003    0.00593
        778    58 -109.075487 -109.094687    0.019200  24.977    0.00003    0.00590
        779    61 -109.075488 -109.094557    0.019069  24.977    0.00003    0.00587
        780    56 -109.075490 -109.094433    0.018943  24.977    0.00003    0.00584
        781    60 -109.075491 -109.094316    0.018825  24.977    0.00003    0.00580
        782    56 -109.075493 -109.094210    0.018717  24.977    0.00003    0.00577
        783    56 -109.075494 -109.094114    0.018620  24.977    0.00003    0.00574
        784    60 -109.075496 -109.094030    0.018534  24.977    0.00003    0.00571
        785    60 -109.075497 -109.093953    0.018456  24.977    0.00003    0.00568
        786    60 -109.075499 -109.093879    0.018380  24.977    0.00003    0.00564
        787    60 -109.075500 -109.093802    0.018302  24.977    0.00004    0.00561
        788    60 -109.075501 -109.093718    0.018217  24.977    0.00004    0.00558
        789    61 -109.075503 -109.093624    0.018121  24.977    0.00004    0.00555
        790    61 -109.075504 -109.093517    0.018013  24.977    0.00004    0.00552
        791    60 -109.075505 -109.093398    0.017893  24.977    0.00004    0.00549
        792    61 -109.075506 -109.093268    0.017762  24.977    0.00004    0.00545
        793    59 -109.075507 -109.093130    0.017623  24.977    0.00004    0.00542
        794    59 -109.075509 -109.092987    0.017478  24.977    0.00004    0.00539
        795    60 -109.075510 -109.092841    0.017331  24.977    0.00004    0.00536
        796    61 -109.075511 -109.092696    0.017185  24.977    0.00004    0.00533
        797    61 -109.075513 -109.092554    0.017042  24.977    0.00004    0.00530
        798    61 -109.075514 -109.092418    0.016904  24.977    0.00004    0.00527
        799    61 -109.075515 -109.092288    0.016772  24.977    0.00004    0.00524
[...]
       2010    32 -109.094733 -109.095396    0.000663   0.749    0.00034    0.00052
       2011    33 -109.094728 -109.095377    0.000649   0.749    0.00040    0.00047
       2012    35 -109.094708 -109.095384    0.000676   0.749    0.00045    0.00042
       2013    34 -109.094698 -109.095393    0.000695   0.749    0.00046    0.00037
       2014    38 -109.094700 -109.095383    0.000683   0.749    0.00041    0.00035
       2015    37 -109.094707 -109.095343    0.000636   0.749    0.00034    0.00035
       2016    37 -109.094716 -109.095297    0.000581   0.749    0.00026    0.00035
       2017    37 -109.094718 -109.095220    0.000502   0.749    0.00021    0.00034
       2018    38 -109.094710 -109.095133    0.000423   0.749    0.00024    0.00033
       2019    38 -109.094697 -109.095028    0.000331   0.749    0.00029    0.00031
       2020    37 -109.094682 -109.094917    0.000235   0.749    0.00033    0.00028
       2021    37 -109.094667 -109.094800    0.000134   0.749    0.00036    0.00026
       2022    38 -109.094658 -109.094689    0.000031   0.749    0.00036    0.00024
       2023    37 -109.094661 -109.094591    0.000069   0.749    0.00035    0.00023
       2024    37 -109.094671 -109.094518    0.000153   0.749    0.00032    0.00023
       2025    35 -109.094693 -109.094473    0.000220   0.749    0.00030    0.00022
       2026    31 -109.094720 -109.094459    0.000261   0.749    0.00028    0.00022
       2027    32 -109.094752 -109.094475    0.000277   0.749    0.00027    0.00021
       2028    30 -109.094780 -109.094514    0.000266   0.749    0.00027    0.00020
       2029    32 -109.094806 -109.094569    0.000237   0.749    0.00026    0.00019
       2030    30 -109.094825 -109.094632    0.000194   0.749    0.00025    0.00017
       2031    32 -109.094838 -109.094697    0.000141   0.749    0.00023    0.00017
       2032    32 -109.094843 -109.094759    0.000084   0.749    0.00022    0.00016
       2033    31 -109.094842 -109.094815    0.000027   0.749    0.00020    0.00016
       2034    32 -109.094837 -109.094864    0.000027   0.749    0.00020    0.00015
       2035    32 -109.094828 -109.094905    0.000077   0.749    0.00020    0.00015
       2036    34 -109.094816 -109.094939    0.000123   0.749    0.00020    0.00014
       2037    30 -109.094803 -109.094966    0.000162   0.749    0.00021    0.00014
       2038    33 -109.094791 -109.094988    0.000196   0.749    0.00021    0.00013
       2039    35 -109.094779 -109.095004    0.000225   0.749    0.00021    0.00013
       2040    37 -109.094767 -109.095016    0.000249   0.749    0.00020    0.00013
       2041    36 -109.094756 -109.095025    0.000270   0.749    0.00019    0.00013
       2042    37 -109.094747 -109.095031    0.000284   0.749    0.00018    0.00012
       2043    36 -109.094737 -109.095034    0.000297   0.749    0.00018    0.00012
       2044    35 -109.094730 -109.095033    0.000302   0.749    0.00018    0.00012
       2045    35 -109.094722 -109.095029    0.000307   0.749    0.00018    0.00012
       2046    34 -109.094717 -109.095020    0.000303   0.749    0.00018    0.00011
       2047    32 -109.094710 -109.095006    0.000297   0.749    0.00018    0.00011
       2048    32 -109.094706 -109.094987    0.000281   0.749    0.00018    0.00011
       2049    34 -109.094700 -109.094962    0.000261   0.749    0.00019    0.00010
       2050    32 -109.094697 -109.094933    0.000236   0.749    0.00019    0.00010
       2051    35 -109.094694 -109.094900    0.000206   0.749    0.00019    0.00010
       2052    32 -109.094694 -109.094864    0.000170   0.749    0.00019    0.00010
       2053    34 -109.094694 -109.094824    0.000131   0.749    0.00020    0.00010
       2054    36 -109.094695 -109.094791    0.000095   0.749    0.00020    0.00010
       2055    35 -109.094698 -109.094756    0.000058   0.749    0.00020    0.00009
       2056    37 -109.094702 -109.094724    0.000022   0.749    0.00019    0.00009
       2057    37 -109.094707 -109.094697    0.000010   0.749    0.00019    0.00009
       2058    37 -109.094712 -109.094673    0.000039   0.749    0.00018    0.00010
       2059    37 -109.094718 -109.094654    0.000063   0.749    0.00018    0.00010
       2060    37 -109.094724 -109.094640    0.000083   0.749    0.00017    0.00010
       2061    35 -109.094729 -109.094631    0.000098   0.749    0.00017    0.00010
       2062    32 -109.094734 -109.094626    0.000109   0.749    0.00016    0.00010
       2063    35 -109.094739 -109.094624    0.000115   0.749    0.00016    0.00010
       2064    32 -109.094743 -109.094625    0.000118   0.749    0.00015    0.00010
       2065    35 -109.094746 -109.094628    0.000118   0.749    0.00015    0.00010
       2066    32 -109.094749 -109.094633    0.000116   0.749    0.00015    0.00010
       2067    34 -109.094752 -109.094640    0.000112   0.749    0.00014    0.00010
       2068    36 -109.094755 -109.094647    0.000108   0.749    0.00014    0.00010
       2069    35 -109.094757 -109.094654    0.000103   0.749    0.00014    0.00010
       2070    37 -109.094761 -109.094663    0.000098   0.749    0.00014    0.00010
       2071    37 -109.094763 -109.094672    0.000092   0.749    0.00014    0.00010
       2072    36 -109.094767 -109.094681    0.000085   0.749    0.00014    0.00009
       2073    37 -109.094769 -109.094693    0.000077   0.749    0.00015    0.00009
       2074    38 -109.094773 -109.094705    0.000068   0.749    0.00015    0.00009
       2075    38 -109.094775 -109.094718    0.000057   0.749    0.00015    0.00009
       2076    38 -109.094778 -109.094732    0.000045   0.749    0.00015    0.00009
       2077    38 -109.094780 -109.094748    0.000032   0.749    0.00016    0.00008
       2078    38 -109.094781 -109.094764    0.000017   0.749    0.00016    0.00008
       2079    39 -109.094781 -109.094780    0.000001   0.749    0.00016    0.00008
       2080    41 -109.094781 -109.094796    0.000015   0.749    0.00017    0.00008
       2081    41 -109.094779 -109.094810    0.000030   0.749    0.00017    0.00007
       2082    41 -109.094777 -109.094823    0.000045   0.749    0.00017    0.00007
       2083    41 -109.094775 -109.094833    0.000058   0.749    0.00017    0.00007
       2084    41 -109.094772 -109.094840    0.000068   0.749    0.00017    0.00007
       2085    41 -109.094769 -109.094844    0.000075   0.749    0.00017    0.00006
       2086    41 -109.094767 -109.094845    0.000078   0.749    0.00017    0.00006
       2087    42 -109.094765 -109.094842    0.000078   0.749    0.00017    0.00006
       2088    42 -109.094763 -109.094839    0.000076   0.749    0.00017    0.00006
       2089    42 -109.094763 -109.094833    0.000071   0.749    0.00016    0.00005
       2090    42 -109.094763 -109.094825    0.000062   0.749    0.00016    0.00005
       2091    42 -109.094763 -109.094814    0.000051   0.749    0.00015    0.00005
       2092    42 -109.094765 -109.094802    0.000037   0.749    0.00015    0.00005
       2093    42 -109.094767 -109.094790    0.000023   0.749    0.00014    0.00005
       2094    42 -109.094770 -109.094779    0.000009   0.749    0.00014    0.00005
       2095    42 -109.094773 -109.094769    0.000004   0.749    0.00014    0.00004
       2096    41 -109.094776 -109.094761    0.000015   0.749    0.00013    0.00004
       2097    41 -109.094779 -109.094754    0.000025   0.749    0.00013    0.00004
       2098    41 -109.094782 -109.094749    0.000033   0.749    0.00013    0.00004
       2099    41 -109.094785 -109.094745    0.000040   0.749    0.00012    0.00004
       2100    41 -109.094786 -109.094741    0.000045   0.749    0.00012    0.00004
       2101    41 -109.094788 -109.094738    0.000050   0.749    0.00012    0.00004
       2102    41 -109.094790 -109.094747    0.000043   0.749    0.00012    0.00004
       2103    40 -109.094791 -109.094754    0.000038   0.749    0.00012    0.00004
       2104    41 -109.094790 -109.094756    0.000034   0.749    0.00012    0.00004
       2105    40 -109.094788 -109.094762    0.000027   0.749    0.00012    0.00004
       2106    41 -109.094786 -109.094764    0.000022   0.749    0.00012    0.00004
       2107    40 -109.094783 -109.094763    0.000020   0.749    0.00012    0.00004
       2108    38 -109.094779 -109.094758    0.000021   0.749    0.00012    0.00004
       2109    41 -109.094775 -109.094751    0.000024   0.749    0.00012    0.00004
       2110    41 -109.094771 -109.094741    0.000030   0.749    0.00012    0.00004
       2111    41 -109.094767 -109.094730    0.000037   0.749    0.00012    0.00004
       2112    42 -109.094764 -109.094718    0.000047   0.749    0.00013    0.00004
       2113    42 -109.094762 -109.094705    0.000057   0.749    0.00013    0.00004
       2114    42 -109.094761 -109.094692    0.000069   0.749    0.00013    0.00004
       2115    42 -109.094761 -109.094681    0.000080   0.749    0.00013    0.00004
       2116    42 -109.094762 -109.094670    0.000092   0.749    0.00013    0.00004
       2117    41 -109.094763 -109.094661    0.000102   0.749    0.00013    0.00004
       2118    38 -109.094766 -109.094655    0.000111   0.749    0.00012    0.00004
       2119    38 -109.094769 -109.094651    0.000118   0.749    0.00012    0.00004
       2120    38 -109.094772 -109.094650    0.000122   0.749    0.00012    0.00004
       2121    38 -109.094776 -109.094652    0.000124   0.749    0.00012    0.00004
       2122    38 -109.094780 -109.094658    0.000123   0.749    0.00012    0.00004
       2123    38 -109.094784 -109.094666    0.000119   0.749    0.00012    0.00004
       2124    38 -109.094788 -109.094676    0.000112   0.749    0.00012    0.00004
       2125    38 -109.094791 -109.094688    0.000103   0.749    0.00012    0.00004
       2126    38 -109.094793 -109.094701    0.000092   0.749    0.00012    0.00004
       2127    38 -109.094795 -109.094716    0.000080   0.749    0.00013    0.00004
       2128    38 -109.094796 -109.094730    0.000066   0.749    0.00013    0.00004
       2129    39 -109.094796 -109.094745    0.000051   0.749    0.00013    0.00003
       2130    41 -109.094795 -109.094759    0.000036   0.749    0.00013    0.00003
       2131    41 -109.094793 -109.094772    0.000022   0.749    0.00014    0.00003
       2132    41 -109.094791 -109.094783    0.000008   0.749    0.00014    0.00003
       2133    41 -109.094788 -109.094792    0.000004   0.749    0.00014    0.00003
       2134    42 -109.094785 -109.094800    0.000015   0.749    0.00014    0.00003
       2135    42 -109.094781 -109.094804    0.000024   0.749    0.00015    0.00002
       2136    42 -109.094777 -109.094807    0.000030   0.749    0.00015    0.00002
       2137    42 -109.094773 -109.094806    0.000033   0.749    0.00015    0.00002
       2138    42 -109.094770 -109.094804    0.000034   0.749    0.00015    0.00002
       2139    42 -109.094767 -109.094799    0.000033   0.749    0.00015    0.00002
       2140    42 -109.094764 -109.094793    0.000029   0.749    0.00015    0.00002
       2141    42 -109.094762 -109.094784    0.000023   0.749    0.00015    0.00002
       2142    42 -109.094760 -109.094775    0.000015   0.749    0.00015    0.00002
       2143    42 -109.094759 -109.094765    0.000006   0.749    0.00014    0.00002
       2144    39 -109.094759 -109.094755    0.000005   0.749    0.00014    0.00002
       2145    39 -109.094760 -109.094744    0.000016   0.749    0.00014    0.00002
       2146    39 -109.094761 -109.094735    0.000026   0.749    0.00013    0.00003
       2147    39 -109.094763 -109.094726    0.000037   0.749    0.00013    0.00003
       2148    39 -109.094765 -109.094718    0.000047   0.749    0.00012    0.00003
       2149    39 -109.094768 -109.094711    0.000056   0.749    0.00012    0.00003
       2150    38 -109.094771 -109.094706    0.000064   0.749    0.00012    0.00003
       2151    38 -109.094774 -109.094702    0.000071   0.749    0.00011    0.00003
       2152    38 -109.094777 -109.094700    0.000076   0.749    0.00011    0.00003
       2153    38 -109.094779 -109.094700    0.000080   0.749    0.00010    0.00003
       2154    38 -109.094782 -109.094700    0.000082   0.749    0.00010    0.00003
       2155    38 -109.094785 -109.094703    0.000082   0.749    0.00010    0.00003

        ==> Orbital Optimization <==

            Orbital Optimization converged in   3 iterations 
            Total energy change: -1.757296e-07
            Final gradient norm: 4.214163e-05

       2156    65 -109.094818 -109.094236    0.000582   0.749    0.00029    0.00032
       2157    32 -109.094887 -109.094485    0.000401   0.749    0.00035    0.00023
       2158    34 -109.094949 -109.094697    0.000251   0.749    0.00032    0.00020
       2159    31 -109.094980 -109.094806    0.000174   0.749    0.00027    0.00017
       2160    33 -109.094969 -109.094849    0.000120   0.749    0.00027    0.00015
       2161    37 -109.094950 -109.094849    0.000101   0.749    0.00028    0.00012
       2162    38 -109.094926 -109.094865    0.000061   0.749    0.00028    0.00011
       2163    38 -109.094904 -109.094895    0.000008   0.749    0.00026    0.00012
       2164    38 -109.094875 -109.094960    0.000084   0.749    0.00026    0.00013
       2165    38 -109.094842 -109.095052    0.000210   0.749    0.00026    0.00014
       2166    37 -109.094807 -109.095144    0.000337   0.749    0.00025    0.00014
       2167    37 -109.094770 -109.095198    0.000429   0.749    0.00022    0.00014
       2168    37 -109.094736 -109.095192    0.000456   0.749    0.00019    0.00013
       2169    36 -109.094707 -109.095128    0.000421   0.749    0.00017    0.00013
       2170    36 -109.094687 -109.095023    0.000336   0.749    0.00016    0.00011
       2171    36 -109.094679 -109.094900    0.000222   0.749    0.00014    0.00011
       2172    33 -109.094688 -109.094835    0.000146   0.749    0.00015    0.00010
       2173    32 -109.094701 -109.094758    0.000057   0.749    0.00015    0.00010
       2174    32 -109.094715 -109.094710    0.000005   0.749    0.00015    0.00009
       2175    33 -109.094731 -109.094683    0.000049   0.749    0.00015    0.00008
       2176    33 -109.094749 -109.094663    0.000086   0.749    0.00015    0.00008
       2177    33 -109.094763 -109.094641    0.000123   0.749    0.00016    0.00007
       2178    36 -109.094775 -109.094621    0.000154   0.749    0.00016    0.00007
       2179    37 -109.094783 -109.094601    0.000182   0.749    0.00015    0.00006
       2180    37 -109.094790 -109.094585    0.000205   0.749    0.00014    0.00007
       2181    37 -109.094796 -109.094576    0.000220   0.749    0.00013    0.00007
       2182    37 -109.094801 -109.094575    0.000226   0.749    0.00011    0.00008
       2183    37 -109.094806 -109.094583    0.000223   0.749    0.00009    0.00008
       2184    37 -109.094809 -109.094595    0.000214   0.749    0.00009    0.00009
       2185    36 -109.094812 -109.094611    0.000201   0.749    0.00009    0.00009
       2186    37 -109.094813 -109.094628    0.000186   0.749    0.00010    0.00008
       2187    37 -109.094814 -109.094644    0.000170   0.749    0.00011    0.00008
       2188    37 -109.094814 -109.094661    0.000153   0.749    0.00013    0.00007
       2189    38 -109.094814 -109.094681    0.000133   0.749    0.00014    0.00006
       2190    38 -109.094813 -109.094702    0.000110   0.749    0.00015    0.00006
       2191    38 -109.094811 -109.094724    0.000087   0.749    0.00016    0.00005
       2192    38 -109.094808 -109.094746    0.000062   0.749    0.00017    0.00005
       2193    38 -109.094805 -109.094767    0.000038   0.749    0.00017    0.00006
       2194    35 -109.094801 -109.094786    0.000015   0.749    0.00017    0.00006
       2195    35 -109.094797 -109.094802    0.000006   0.749    0.00016    0.00006
       2196    34 -109.094792 -109.094817    0.000025   0.749    0.00015    0.00006
       2197    33 -109.094787 -109.094827    0.000040   0.749    0.00014    0.00006
       2198    32 -109.094782 -109.094829    0.000047   0.749    0.00013    0.00006
       2199    35 -109.094776 -109.094824    0.000048   0.749    0.00013    0.00006
       2200    35 -109.094771 -109.094815    0.000043   0.749    0.00012    0.00005
       2201    35 -109.094767 -109.094803    0.000035   0.749    0.00012    0.00005
       2202    35 -109.094764 -109.094788    0.000024   0.749    0.00012    0.00005
       2203    35 -109.094763 -109.094773    0.000010   0.749    0.00012    0.00004
       2204    34 -109.094762 -109.094758    0.000004   0.749    0.00012    0.00004
       2205    35 -109.094763 -109.094744    0.000020   0.749    0.00012    0.00004
       2206    38 -109.094764 -109.094730    0.000034   0.749    0.00012    0.00003
       2207    35 -109.094767 -109.094719    0.000047   0.749    0.00012    0.00003
       2208    38 -109.094770 -109.094711    0.000059   0.749    0.00011    0.00003
       2209    32 -109.094773 -109.094703    0.000070   0.749    0.00011    0.00003
       2210    38 -109.094777 -109.094700    0.000077   0.749    0.00011    0.00004
       2211    32 -109.094781 -109.094696    0.000084   0.749    0.00010    0.00004
       2212    38 -109.094785 -109.094698    0.000087   0.749    0.00010    0.00004

        ==> Orbital Optimization <==

            Orbital Optimization converged in   1 iterations 
            Total energy change: -1.667132e-09
            Final gradient norm: 6.220986e-05


      v2RDM iterations converged!

      v2RDM total spin [S(S+1)]:            -0.000020
    * v2RDM total energy:           -109.094784621661


 # Natural Orbital Occupation Numbers (alpha) #
 Irrep: 1
      1:  1.0000000
      2:  1.0000000
      3:  0.9906477
      4:  0.0000000
      5:  0.0000000
      6:  0.0000000
      7:  0.0000000

 Irrep: 2
      1:  0.0000000

 Irrep: 3
      1:  0.0327319
      2:  0.0000000
      3:  0.0000000

 Irrep: 4
      1:  0.0327320
      2:  0.0000000
      3:  0.0000000

 Irrep: 5
      1:  0.0000000

 Irrep: 6
      1:  1.0000000
      2:  1.0000000
      3:  0.0093728
      4:  0.0000000
      5:  0.0000000
      6:  0.0000000
      7:  0.0000000

 Irrep: 7
      1:  0.9672578
      2:  0.0000000
      3:  0.0000000

 Irrep: 8
      1:  0.9672578
      2:  0.0000000
      3:  0.0000000


 # Natural Orbital Occupation Numbers (beta) #
 Irrep: 1
      1:  1.0000000
      2:  1.0000000
      3:  0.9906458
      4:  0.0000000
      5:  0.0000000
      6:  0.0000000
      7:  0.0000000

 Irrep: 2
      1:  0.0000000

 Irrep: 3
      1:  0.0327315
      2:  0.0000000
      3:  0.0000000

 Irrep: 4
      1:  0.0327315
      2:  0.0000000
      3:  0.0000000

 Irrep: 5
      1:  0.0000000

 Irrep: 6
      1:  1.0000000
      2:  1.0000000
      3:  0.0093747
      4:  0.0000000
      5:  0.0000000
      6:  0.0000000
      7:  0.0000000

 Irrep: 7
      1:  0.9672583
      2:  0.0000000
      3:  0.0000000

 Irrep: 8
      1:  0.9672583
      2:  0.0000000
      3:  0.0000000


  ==> Iteration count <==

      Microiterations:                  111979
      Macroiterations:                    2213
      Orbital optimization steps:            6

  ==> Wall time <==

      Microiterations:                    5.10 s
      Macroiterations:                    1.50 s
      Orbital optimization:               0.15 s
      Total:                              6.91 s


*** tstop() called on ed4 at Tue Apr  5 16:25:15 2016
Module time:
	user time   =       6.92 seconds =       0.12 minutes
	system time =       0.02 seconds =       0.00 minutes
	total time  =          7 seconds =       0.12 minutes
Total time:
	user time   =       7.03 seconds =       0.12 minutes
	system time =       0.05 seconds =       0.00 minutes
	total time  =          7 seconds =       0.12 minutes
	SCF total energy..................................................PASSED
	v2RDM-CASSCF total energy.........................................PASSED

*** PSI4 exiting successfully. Buy a developer a beer!
