    -----------------------------------------------------------------------
          Psi4: An Open-Source Ab Initio Electronic Structure Package
                              Psi4 1.0rc6 Driver

                          Git: Rev {master} a7c1637 dirty

    J. M. Turney, A. C. Simmonett, R. M. Parrish, E. G. Hohenstein,
    F. A. Evangelista, J. T. Fermann, B. J. Mintz, L. A. Burns, J. J. Wilke,
    M. L. Abrams, N. J. Russ, M. L. Leininger, C. L. Janssen, E. T. Seidl,
    W. D. Allen, H. F. Schaefer, R. A. King, E. F. Valeev, C. D. Sherrill,
    and T. D. Crawford, WIREs Comput. Mol. Sci. 2, 556-565 (2012)
    (doi: 10.1002/wcms.93)

                         Additional Contributions by
    A. E. DePrince, U. Bozkaya, A. Yu. Sokolov, D. G. A. Smith, R. Di Remigio,
    R. M. Richard, J. F. Gonthier, H. R. McAlexander, M. Saitow, and
    B. P. Pritchard
    -----------------------------------------------------------------------


    Psi4 started on: Fri Jun  3 15:51:34 2016

    Process ID:  81866
    PSI4DATADIR: /Users/deprince/psi4/install/debug/share/psi4
    Memory level set to 256.000 MB

  ==> Input File <==

--------------------------------------------------------------------------
#! cc-pvdz N2 (6,6) active space Test DQG

# job description:
print '        N2 / cc-pVDZ / DQG(6,6), scf_type = DF, rNN = 1.1 A'

sys.path.insert(0, '../../..')
import v2rdm_casscf

molecule n2 {
0 1
n
n 1 r
}

set {
  basis cc-pvdz
  scf_type df
  d_convergence      1e-10
  maxiter 500
  restricted_docc [ 2, 0, 0, 0, 0, 2, 0, 0 ]
  active          [ 1, 0, 1, 1, 0, 1, 1, 1 ]
}
set v2rdm_casscf {
  positivity dqg
  r_convergence  1e-5
  e_convergence  1e-6
  maxiter 20000
}

activate(n2)

n2.r     = 1.1
refscf   = -108.95348837831371 # TEST
refv2rdm = -109.094404909477   # TEST

energy('v2rdm-casscf')

compare_values(refscf, get_variable("SCF TOTAL ENERGY"), 8, "SCF total energy") # TEST
compare_values(refv2rdm, get_variable("CURRENT ENERGY"), 5, "v2RDM-CASSCF total energy") # TEST

--------------------------------------------------------------------------
/Users/deprince/chem/v2rdm_casscf/v2rdm_casscf.so loaded.
Setting geometry variable r to 1.100000

*** tstart() called on wg-dhcp201d206d180.secure.wireless.fsu.
*** at Fri Jun  3 15:51:34 2016


         ---------------------------------------------------------
                                   SCF
            by Justin Turney, Rob Parrish, and Andy Simmonett
                              RHF Reference
                        1 Threads,    256 MiB Core
         ---------------------------------------------------------

  ==> Geometry <==

    Molecular point group: d2h
    Full point group: D_inf_h

    Geometry (in Angstrom), charge = 0, multiplicity = 1:

       Center              X                  Y                   Z               Mass       
    ------------   -----------------  -----------------  -----------------  -----------------
           N          0.000000000000     0.000000000000    -0.550000000000    14.003074004780
           N          0.000000000000     0.000000000000     0.550000000000    14.003074004780

  Running in d2h symmetry.

  Rotational constants: A = ************  B =      1.98984  C =      1.98984 [cm^-1]
  Rotational constants: A = ************  B =  59653.84444  C =  59653.84444 [MHz]
  Nuclear repulsion =   23.572439291736362

  Charge       = 0
  Multiplicity = 1
  Electrons    = 14
  Nalpha       = 7
  Nbeta        = 7

  ==> Algorithm <==

  SCF Algorithm Type is DF.
  DIIS enabled.
  MOM disabled.
  Fractional occupation disabled.
  Guess Type is CORE.
  Energy threshold   = 1.00e-08
  Density threshold  = 1.00e-10
  Integral threshold = 0.00e+00

  ==> Primary Basis <==

  Basis Set: CC-PVDZ
    Number of shells: 12
    Number of basis function: 28
    Number of Cartesian functions: 30
    Spherical Harmonics?: true
    Max angular momentum: 2

  ==> Pre-Iterations <==

   -------------------------------------------------------
    Irrep   Nso     Nmo     Nalpha   Nbeta   Ndocc  Nsocc
   -------------------------------------------------------
     Ag         7       7       0       0       0       0
     B1g        1       1       0       0       0       0
     B2g        3       3       0       0       0       0
     B3g        3       3       0       0       0       0
     Au         1       1       0       0       0       0
     B1u        7       7       0       0       0       0
     B2u        3       3       0       0       0       0
     B3u        3       3       0       0       0       0
   -------------------------------------------------------
    Total      28      28       7       7       7       0
   -------------------------------------------------------

  ==> Integral Setup <==

  ==> DFJK: Density-Fitted J/K Matrices <==

    J tasked:                  Yes
    K tasked:                  Yes
    wK tasked:                  No
    OpenMP threads:              1
    Integrals threads:           1
    Memory (MB):               183
    Algorithm:                Core
    Integral Cache:           SAVE
    Schwarz Cutoff:          1E-12
    Fitting Condition:       1E-12

   => Auxiliary Basis Set <=

  Basis Set: 
    Number of shells: 48
    Number of basis function: 140
    Number of Cartesian functions: 162
    Spherical Harmonics?: true
    Max angular momentum: 3

  Minimum eigenvalue in the overlap matrix is 6.1906036234E-03.
  Using Symmetric Orthogonalization.
  SCF Guess: Core (One-Electron) Hamiltonian.

  ==> Iterations <==

                           Total Energy        Delta E     RMS |[F,P]|

    Occupation by irrep:
             Ag   B1g   B2g   B3g    Au   B1u   B2u   B3u 
    DOCC [     3,    0,    0,    0,    0,    2,    1,    1 ]

   @DF-RHF iter   1:   -99.92277299360826   -9.99228e+01   2.54521e-01 
   @DF-RHF iter   2:  -106.57776781959150   -6.65499e+00   1.86596e-01 DIIS
   @DF-RHF iter   3:  -108.86448416243199   -2.28672e+00   3.60110e-02 DIIS
   @DF-RHF iter   4:  -108.95029441476670   -8.58103e-02   5.38078e-03 DIIS
   @DF-RHF iter   5:  -108.95340133461461   -3.10692e-03   9.45212e-04 DIIS
   @DF-RHF iter   6:  -108.95348761700937   -8.62824e-05   8.63375e-05 DIIS
   @DF-RHF iter   7:  -108.95348836594563   -7.48936e-07   1.25814e-05 DIIS
   @DF-RHF iter   8:  -108.95348837812752   -1.21819e-08   1.54695e-06 DIIS
   @DF-RHF iter   9:  -108.95348837831280   -1.85281e-10   1.00773e-07 DIIS
   @DF-RHF iter  10:  -108.95348837831371   -9.09495e-13   8.49991e-09 DIIS
   @DF-RHF iter  11:  -108.95348837831371    0.00000e+00   7.60311e-10 DIIS
   @DF-RHF iter  12:  -108.95348837831371    0.00000e+00   6.48553e-11 DIIS

  ==> Post-Iterations <==

    Orbital Energies (a.u.)
    -----------------------

    Doubly Occupied:                                                      

       1Ag   -15.687294     1B1u  -15.683937     2Ag    -1.469609  
       2B1u   -0.774890     3Ag    -0.626042     1B2u   -0.607131  
       1B3u   -0.607131  

    Virtual:                                                              

       1B3g    0.174361     1B2g    0.174361     3B1u    0.593802  
       4Ag     0.821219     2B2u    0.873141     2B3u    0.873141  
       5Ag     0.992144     2B3g    1.050649     2B2g    1.050649  
       4B1u    1.140869     5B1u    1.640793     1B1g    1.759650  
       6Ag     1.759650     3B3u    1.880643     3B2u    1.880643  
       6B1u    2.297692     1Au     2.297692     7Ag     2.872203  
       3B2g    2.994434     3B3g    2.994434     7B1u    3.278797  

    Final Occupation by Irrep:
             Ag   B1g   B2g   B3g    Au   B1u   B2u   B3u 
    DOCC [     3,    0,    0,    0,    0,    2,    1,    1 ]

  Energy converged.

  @DF-RHF Final Energy:  -108.95348837831371

   => Energetics <=

    Nuclear Repulsion Energy =             23.5724392917363623
    One-Electron Energy =                -194.1397891674204175
    Two-Electron Energy =                  61.6138614973703440
    DFT Exchange-Correlation Energy =       0.0000000000000000
    Empirical Dispersion Energy =           0.0000000000000000
    PCM Polarization Energy =               0.0000000000000000
    EFP Energy =                            0.0000000000000000
    Total Energy =                       -108.9534883783136934


  Saving occupied orbitals to File 180.

*** tstop() called on wg-dhcp201d206d180.secure.wireless.fsu. at Fri Jun  3 15:51:35 2016
Module time:
	user time   =       0.19 seconds =       0.00 minutes
	system time =       0.01 seconds =       0.00 minutes
	total time  =          1 seconds =       0.02 minutes
Total time:
	user time   =       0.19 seconds =       0.00 minutes
	system time =       0.01 seconds =       0.00 minutes
	total time  =          1 seconds =       0.02 minutes


Properties will be evaluated at   0.000000,   0.000000,   0.000000 Bohr

Properties computed using the SCF density matrix

  Nuclear Dipole Moment: (a.u.)
     X:     0.0000      Y:     0.0000      Z:     0.0000

  Electronic Dipole Moment: (a.u.)
     X:     0.0000      Y:     0.0000      Z:     0.0000

  Dipole Moment: (a.u.)
     X:     0.0000      Y:     0.0000      Z:     0.0000     Total:     0.0000

  Dipole Moment: (Debye)
     X:     0.0000      Y:     0.0000      Z:     0.0000     Total:     0.0000


Reading options from the V2RDM_CASSCF block
Calling plugin v2rdm_casscf.so.



*** tstart() called on wg-dhcp201d206d180.secure.wireless.fsu.
*** at Fri Jun  3 15:51:35 2016



        ****************************************************
        *                                                  *
        *    v2RDM-CASSCF                                  *
        *                                                  *
        *    A variational 2-RDM-driven approach to the    *
        *    active space self-consistent field method     *
        *                                                  *
        ****************************************************


        The following papers should be cited when using v2RDM-CASSCF:

        J. Fosso-Tande, D. R. Nascimento, and A. E. DePrince III,
        Mol. Phys. 114, 423-430 (2015).

            URL: http://dx.doi.org/10.1080/00268976.2015.1078008

        J. Fosso-Tande, T.-S. Nguyen, G. Gidofalvi, and
        A. E. DePrince III, J. Chem. Theory Comput. 12, 2260-2271 (2016).

            URL: http://dx.doi.org/10.1021/acs.jctc.6b00190



  ==> Convergence parameters <==

        r_convergence:                      1.000e-05
        e_convergence:                      1.000e-06
        cg_convergence:                     1.000e-05
        maxiter:                                20000
        cg_maxiter:                             10000

  ==> Active space details <==

        Number of frozen core orbitals:             0
        Number of restricted occupied orbitals:     4
        Number of active occupied orbitals:         3
        Number of active virtual orbitals:          3
        Number of restricted virtual orbitals:     18
        Number of frozen virtual orbitals:          0

        Irrep:             Ag, B1g, B2g, B3g,  Au, B1u, B2u, B3u 
 
        frozen_docc     [   0,   0,   0,   0,   0,   0,   0,   0 ]
        restricted_docc [   2,   0,   0,   0,   0,   2,   0,   0 ]
        active          [   1,   0,   1,   1,   0,   1,   1,   1 ]
        restricted_uocc [   4,   1,   2,   2,   1,   4,   2,   2 ]
        frozen_uocc     [   0,   0,   0,   0,   0,   0,   0,   0 ]

  ==> Orbital optimization parameters <==

        1-step algorithm:                       1
        g_convergence:                  1.000e-04
        e_convergence:                  1.000e-08
        maximum iterations:                    20
        frequency:                            500
        active-active rotations:                0
        exact diagonal Hessian:                 0
        number of DIIS vectors:                 0
        print iteration info:                   0

  ==> Memory requirements <==

        D2:                          0.00 mb
        Q2:                          0.00 mb
        G2:                          0.01 mb

        Total number of variables:           1668
        Total number of constraints:         1555
        Total memory requirements:        0.54 mb

    ==> Transform three-electron integrals <==


        Time for integral transformation:     0.12 s

    Molecular point group: d2h
    Full point group: D_inf_h

    Geometry (in Angstrom), charge = 0, multiplicity = 1:

       Center              X                  Y                   Z               Mass       
    ------------   -----------------  -----------------  -----------------  -----------------
           N          0.000000000000     0.000000000000    -0.550000000000    14.003074004780
           N          0.000000000000     0.000000000000     0.550000000000    14.003074004780

  -AO BASIS SET INFORMATION:
    Name                   = CC-PVDZ
    Total number of shells = 12
    Number of primitives   = 44
    Number of AO           = 30
    Number of SO           = 28
    Maximum AM             = 2
    Spherical Harmonics    = TRUE

  -Contraction Scheme:
    Atom   Type   All Primitives // Shells:
   ------ ------ --------------------------
       1     N     17s 4p 1d // 3s 2p 1d 
       2     N     17s 4p 1d // 3s 2p 1d 

  ==> AO Basis Functions <==

    [ CC-PVDZ ]
    spherical
    ****
    N   1
    S   8 1.00
                      9046.00000000           0.00070000
                      1357.00000000           0.00538900
                       309.30000000           0.02740600
                        87.73000000           0.10320700
                        28.56000000           0.27872300
                        10.21000000           0.44854000
                         3.83800000           0.27823800
                         0.74660000           0.01544000
    S   8 1.00
                      9046.00000000          -0.00015300
                      1357.00000000          -0.00120800
                       309.30000000          -0.00599200
                        87.73000000          -0.02454400
                        28.56000000          -0.06745900
                        10.21000000          -0.15807800
                         3.83800000          -0.12183100
                         0.74660000           0.54900300
    S   1 1.00
                         0.22480000           1.00000000
    P   3 1.00
                        13.55000000           0.03991900
                         2.91700000           0.21716900
                         0.79730000           0.51031900
    P   1 1.00
                         0.21850000           1.00000000
    D   1 1.00
                         0.81700000           1.00000000
    ****


    reference energy:        -108.953488378314
    frozen core energy:      -121.129881000545
    initial 2-RDM energy:     -93.112041937412

      oiter iiter        E(p)        E(d)      E gap)      mu     eps(p)     eps(d)
          0    36  -99.936591  170.007716  269.944306   1.000   87.44075   66.65651
          1    21 -100.813649 -313.781986  212.968337   1.000   18.53301   39.74931
          2    21 -109.239036 -195.139022   85.899986   1.000    5.87446   13.17440
          3    21 -110.357955 -152.667620   42.309665   1.000    8.76458    4.48046
          4    21 -109.649765 -131.162524   21.512759   1.000    7.52452    2.05082
          5    24 -108.743638 -118.951978   10.208340   1.000    5.41779    1.81937
          6    25 -108.046421 -112.885952    4.839531   1.000    3.78469    1.45515
          7    24 -107.674199 -109.580374    1.906175   1.000    2.62195    1.27992
          8    24 -107.534703 -107.700638    0.165935   1.000    1.84483    0.99739
          9    24 -107.514228 -106.356539    1.157689   1.000    1.24021    0.99934
         10    24 -107.618232 -106.388161    1.230071   1.000    0.69670    0.85906
         11    24 -107.702414 -107.019148    0.683266   1.000    0.39140    0.52618
         12    24 -107.787657 -107.247287    0.540369   1.000    0.28383    0.31749
         13    17 -107.845855 -107.255887    0.589967   1.000    0.12564    0.32225
         14    24 -107.895272 -107.372210    0.523063   1.000    0.17776    0.26907
         15    24 -107.939818 -107.524146    0.415673   1.000    0.19689    0.24539
         16    21 -107.975195 -107.648960    0.326235   1.000    0.16137    0.23933
         17    19 -108.012576 -107.701001    0.311575   1.000    0.10147    0.23784
         18    17 -108.047614 -107.694398    0.353216   1.000    0.06338    0.23106
         19    24 -108.088008 -107.654473    0.433535   1.000    0.07474    0.22183
         20    24 -108.132689 -107.620678    0.512011   1.000    0.09837    0.21422
         21    21 -108.178842 -107.611231    0.567611   1.000    0.11466    0.20788
         22    18 -108.221500 -107.631540    0.589960   1.000    0.12606    0.20164
         23    18 -108.263624 -107.671964    0.591660   1.000    0.12552    0.19541
         24    18 -108.302019 -107.734693    0.567326   1.000    0.11067    0.19130
         25    21 -108.340015 -107.800985    0.539030   1.000    0.08395    0.18946
         26    21 -108.372812 -107.831260    0.541552   1.000    0.06730    0.18779
         27    21 -108.401845 -107.847433    0.554413   1.000    0.07052    0.18428
         28    21 -108.429395 -107.863195    0.566200   1.000    0.08107    0.17926
         29    21 -108.455410 -107.887572    0.567838   1.000    0.08566    0.17260
         30    21 -108.466137 -107.923953    0.542184   1.000    0.10876    0.15560
         31    21 -108.486246 -108.051737    0.434509   1.000    0.12556    0.13507
         32    21 -108.503120 -108.230824    0.272296   1.000    0.11737    0.12565
         33    19 -108.513351 -108.356337    0.157013   1.000    0.08754    0.12186
         34    21 -108.519543 -108.400952    0.118591   1.000    0.06722    0.11776
         35    20 -108.523960 -108.387115    0.136845   1.000    0.06361    0.11252
         36    24 -108.533155 -108.355395    0.177760   1.000    0.05976    0.10869
         37    21 -108.551728 -108.325131    0.226597   1.000    0.04734    0.10683
         38    21 -108.572915 -108.315869    0.257046   1.000    0.04008    0.10553
         39    21 -108.583985 -108.320151    0.263834   1.000    0.03615    0.10395
         40    21 -108.594842 -108.326693    0.268149   1.000    0.03541    0.10229
         41    21 -108.605294 -108.334029    0.271265   1.000    0.03472    0.10107
         42    18 -108.615422 -108.338945    0.276477   1.000    0.03403    0.10020
         43    17 -108.621869 -108.339751    0.282117   1.000    0.02703    0.09954
         44    20 -108.630320 -108.340740    0.289580   1.000    0.02702    0.09866
         45    20 -108.639062 -108.341123    0.297939   1.000    0.02891    0.09762
         46    21 -108.647733 -108.345148    0.302585   1.000    0.03106    0.09631
         47    21 -108.654924 -108.350047    0.304877   1.000    0.02665    0.09534
         48    20 -108.661916 -108.355200    0.306716   1.000    0.02294    0.09476
         49    24 -108.670689 -108.359088    0.311601   1.000    0.02048    0.09438
         50    24 -108.679390 -108.360571    0.318819   1.000    0.01823    0.09412
         51    24 -108.688224 -108.361470    0.326753   1.000    0.01696    0.09377
         52    24 -108.697016 -108.360864    0.336153   1.000    0.01698    0.09328
         53    24 -108.705586 -108.360181    0.345405   1.000    0.01791    0.09268
         54    20 -108.713725 -108.360189    0.353535   1.000    0.01909    0.09210
         55    20 -108.721767 -108.361187    0.360580   1.000    0.01989    0.09164
         56    19 -108.729507 -108.363518    0.365989   1.000    0.01958    0.09139
         57    19 -108.737265 -108.367429    0.369836   1.000    0.01808    0.09137
         58    19 -108.745026 -108.375290    0.369737   1.000    0.01707    0.09097
         59    20 -108.751616 -108.381345    0.370272   1.000    0.01892    0.09038
         60    20 -108.758283 -108.390484    0.367798   1.000    0.02224    0.08956
         61    20 -108.765399 -108.399475    0.365924   1.000    0.02381    0.08882
         62    21 -108.772927 -108.406101    0.366826   1.000    0.02350    0.08833
         63    19 -108.780605 -108.410017    0.370588   1.000    0.02212    0.08801
         64    19 -108.788564 -108.411691    0.376873   1.000    0.02063    0.08776
         65    19 -108.796572 -108.411421    0.385151   1.000    0.01962    0.08750
         66    19 -108.804629 -108.410777    0.393852   1.000    0.01921    0.08720
         67    19 -108.812713 -108.411052    0.401661   1.000    0.01907    0.08689
         68    19 -108.820526 -108.413068    0.407458   1.000    0.01904    0.08654
         69    19 -108.828210 -108.417156    0.411054   1.000    0.01915    0.08609
         70    19 -108.835496 -108.420961    0.414535   1.000    0.01961    0.08562
         71    19 -108.842036 -108.424957    0.417078   1.000    0.02023    0.08508
         72    19 -108.848557 -108.428797    0.419760   1.000    0.02030    0.08471
         73    24 -108.855641 -108.435933    0.419708   1.000    0.02062    0.08426
         74    21 -108.863266 -108.441207    0.422059   1.000    0.02106    0.08390
         75    21 -108.870851 -108.445420    0.425431   1.000    0.02178    0.08355
         76    21 -108.878203 -108.448615    0.429588   1.000    0.02211    0.08322
         77    20 -108.884949 -108.450728    0.434221   1.000    0.02173    0.08298
         78    21 -108.891700 -108.452177    0.439523   1.000    0.02079    0.08282
         79    19 -108.898328 -108.453667    0.444661   1.000    0.01987    0.08273
         80    21 -108.905014 -108.454658    0.450355   1.000    0.01910    0.08262
         81    20 -108.911508 -108.454235    0.457273   1.000    0.01827    0.08254
         82    21 -108.917898 -108.454096    0.463802   1.000    0.01761    0.08230
         83    21 -108.924077 -108.453660    0.470417   1.000    0.01777    0.08186
         84    21 -108.930129 -108.455833    0.474296   1.000    0.01826    0.08095
         85    21 -108.935992 -108.462607    0.473385   1.000    0.01973    0.07994
         86    20 -108.941597 -108.476413    0.465184   1.000    0.02231    0.07821
         87    19 -108.947053 -108.494353    0.452700   1.000    0.02582    0.07633
         88    19 -108.952726 -108.521741    0.430986   1.000    0.02836    0.07457
         89    23 -108.958469 -108.550154    0.408315   1.000    0.02905    0.07351
         90    24 -108.963769 -108.573926    0.389843   1.000    0.02842    0.07294
         91    19 -108.968300 -108.591477    0.376823   1.000    0.02699    0.07254
         92    19 -108.972726 -108.601719    0.371007   1.000    0.02511    0.07219
         93    19 -108.976811 -108.605309    0.371502   1.000    0.02317    0.07179
         94    19 -108.980780 -108.604498    0.376282   1.000    0.02166    0.07133
         95    23 -108.984893 -108.602608    0.382285   1.000    0.02113    0.07051
         96    19 -108.989317 -108.604408    0.384909   1.000    0.02181    0.06923
         97    24 -108.994332 -108.605179    0.389153   1.000    0.02316    0.06763
         98    19 -108.998711 -108.610408    0.388303   1.000    0.02636    0.06530
         99    19 -109.001027 -108.625007    0.376020   1.000    0.03241    0.06194
        100    19 -109.002609 -108.653523    0.349086   1.000    0.03686    0.05825
        101    19 -109.005133 -108.686688    0.318445   1.000    0.03894    0.05442
        102    19 -109.008111 -108.719752    0.288359   1.000    0.03927    0.05131
        103    19 -109.011976 -108.755737    0.256239   1.000    0.03887    0.04928
        104    19 -109.014950 -108.787321    0.227628   1.000    0.03781    0.04810
        105    19 -109.015557 -108.817266    0.198292   1.000    0.03464    0.04708
        106    20 -109.017117 -108.847443    0.169674   1.000    0.03223    0.04550
        107    19 -109.018257 -108.869266    0.148991   1.000    0.03018    0.04378
        108    19 -109.019890 -108.884136    0.135754   1.000    0.02790    0.04205
        109    19 -109.021094 -108.893862    0.127233   1.000    0.02486    0.04076
        110    20 -109.022061 -108.903172    0.118888   1.000    0.02233    0.03895
        111    19 -109.023064 -108.904047    0.119017   1.000    0.02050    0.03745
        112    21 -109.023416 -108.900653    0.122763   1.000    0.01934    0.03597
        113    18 -109.023758 -108.895653    0.128105   1.000    0.01870    0.03445
        114    18 -109.024019 -108.891046    0.132973   1.000    0.01868    0.03280
        115    19 -109.024569 -108.886933    0.137636   1.000    0.01901    0.03117
        116    18 -109.025167 -108.884169    0.140998   1.000    0.01934    0.02962
        117    18 -109.024015 -108.881654    0.142360   1.000    0.01584    0.02843
        118    19 -109.024828 -108.882294    0.142534   1.000    0.01546    0.02719
        119    19 -109.025792 -108.882322    0.143470   1.000    0.01529    0.02616
        120    19 -109.026838 -108.883393    0.143444   1.000    0.01528    0.02523
        121    19 -109.027947 -108.885244    0.142703   1.000    0.01520    0.02447
        122    19 -109.029238 -108.888986    0.140252   1.000    0.01533    0.02361
        123    19 -109.030219 -108.892264    0.137955   1.000    0.01537    0.02285
        124    19 -109.030609 -108.896551    0.134059   1.000    0.01515    0.02217
        125    19 -109.031309 -108.902410    0.128900   1.000    0.01511    0.02146
        126    19 -109.031971 -108.907855    0.124117   1.000    0.01499    0.02079
        127    19 -109.032504 -108.913943    0.118561   1.000    0.01482    0.02009
        128    19 -109.032895 -108.920626    0.112269   1.000    0.01465    0.01935
        129    19 -109.033150 -108.928067    0.105083   1.000    0.01450    0.01854
        130    19 -109.033161 -108.936664    0.096497   1.000    0.01418    0.01776
        131    19 -109.033019 -108.946651    0.086368   1.000    0.01394    0.01684
        132    19 -109.032367 -108.956799    0.075568   1.000    0.01328    0.01602
        133    19 -109.032072 -108.967424    0.064648   1.000    0.01293    0.01520
        134    19 -109.031728 -108.976450    0.055279   1.000    0.01258    0.01440
        135    19 -109.031188 -108.983957    0.047232   1.000    0.01216    0.01361
        136    19 -109.030557 -108.990258    0.040299   1.000    0.01186    0.01287
        137    19 -109.030173 -108.995438    0.034735   1.000    0.01135    0.01216
        138    19 -109.029713 -108.999255    0.030459   1.000    0.01079    0.01152
        139    17 -109.029278 -109.002051    0.027227   1.000    0.01017    0.01093
        140    17 -109.028905 -109.003785    0.025120   1.000    0.00950    0.01041
        141    17 -109.028569 -109.004845    0.023724   1.000    0.00881    0.00994
        142    17 -109.028263 -109.005310    0.022952   1.000    0.00816    0.00950
        143    17 -109.027966 -109.005560    0.022406   1.000    0.00758    0.00907
        144    17 -109.027711 -109.005798    0.021912   1.000    0.00708    0.00864
        145    19 -109.027501 -109.006434    0.021066   1.000    0.00667    0.00824
        146    19 -109.027349 -109.007619    0.019730   1.000    0.00635    0.00780
        147    19 -109.027227 -109.008830    0.018397   1.000    0.00614    0.00737
        148    19 -109.026969 -109.010419    0.016551   1.000    0.00601    0.00693
        149    20 -109.026843 -109.012914    0.013929   1.000    0.00596    0.00645
        150    20 -109.026745 -109.015845    0.010900   1.000    0.00586    0.00600
        151    21 -109.026688 -109.018731    0.007957   1.000    0.00572    0.00548
        152    20 -109.026582 -109.021158    0.005424   1.000    0.00550    0.00501
        153    21 -109.026523 -109.022959    0.003564   1.000    0.00521    0.00462
        154    20 -109.026372 -109.023980    0.002392   1.000    0.00484    0.00430
        155    20 -109.026212 -109.024379    0.001833   1.000    0.00455    0.00402
        156    20 -109.026087 -109.024244    0.001842   1.000    0.00434    0.00376
        157    24 -109.025897 -109.023754    0.002144   1.000    0.00417    0.00351
        158    24 -109.025730 -109.023393    0.002337   1.000    0.00406    0.00324
        159    24 -109.025530 -109.022887    0.002643   1.000    0.00384    0.00305
        160    24 -109.025344 -109.023156    0.002188   1.000    0.00369    0.00281
        161    24 -109.025218 -109.023277    0.001940   1.000    0.00359    0.00258
        162    24 -109.025127 -109.022984    0.002144   1.000    0.00352    0.00237
        163    24 -109.025075 -109.022417    0.002659   1.000    0.00349    0.00216
        164    24 -109.025056 -109.021595    0.003461   1.000    0.00348    0.00197
        165    24 -109.025069 -109.020661    0.004408   1.000    0.00347    0.00182
        166    24 -109.025106 -109.019785    0.005321   1.000    0.00345    0.00170
        167    24 -109.025003 -109.018861    0.006142   1.000    0.00325    0.00170
        168    24 -109.025031 -109.018485    0.006546   1.000    0.00317    0.00167
        169    24 -109.025080 -109.018101    0.006979   1.000    0.00310    0.00168
        170    24 -109.025136 -109.017703    0.007433   1.000    0.00305    0.00171
        171    25 -109.025201 -109.017339    0.007862   1.000    0.00301    0.00172
        172    24 -109.025274 -109.017006    0.008268   1.000    0.00297    0.00171
        173    24 -109.025352 -109.016714    0.008638   1.000    0.00294    0.00169
        174    25 -109.025432 -109.016480    0.008951   1.000    0.00293    0.00164
        175    24 -109.025511 -109.016327    0.009185   1.000    0.00292    0.00159
        176    24 -109.025589 -109.016274    0.009315   1.000    0.00291    0.00152
        177    24 -109.025663 -109.016338    0.009324   1.000    0.00291    0.00145
        178    24 -109.025599 -109.016530    0.009069   1.000    0.00284    0.00141
        179    24 -109.025659 -109.017007    0.008652   1.000    0.00286    0.00131
        180    24 -109.025713 -109.017475    0.008238   1.000    0.00287    0.00123
        181    21 -109.025769 -109.018006    0.007762   1.000    0.00288    0.00116
        182    21 -109.025810 -109.018591    0.007218   1.000    0.00288    0.00109
        183    24 -109.025840 -109.019250    0.006590   1.000    0.00282    0.00107
        184    21 -109.025911 -109.020119    0.005791   1.000    0.00276    0.00104
        185    24 -109.025970 -109.020893    0.005077   1.000    0.00273    0.00096
        186    24 -109.025997 -109.021566    0.004431   1.000    0.00271    0.00089
        187    24 -109.025989 -109.022245    0.003744   1.000    0.00268    0.00085
        188    24 -109.025959 -109.022933    0.003026   1.000    0.00266    0.00082
        189    24 -109.025866 -109.023608    0.002258   1.000    0.00260    0.00081
        190    26 -109.025803 -109.024301    0.001502   1.000    0.00258    0.00077
        191    26 -109.025749 -109.024865    0.000883   1.000    0.00255    0.00075
        192    26 -109.025695 -109.025316    0.000380   1.000    0.00252    0.00074
        193    26 -109.025643 -109.025675    0.000032   1.000    0.00249    0.00074
        194    24 -109.025591 -109.025962    0.000371   1.000    0.00246    0.00074
        195    26 -109.025538 -109.026198    0.000660   1.000    0.00242    0.00074
        196    26 -109.025485 -109.026393    0.000907   1.000    0.00239    0.00075
        197    26 -109.025433 -109.026551    0.001118   1.000    0.00236    0.00075
        198    26 -109.025381 -109.026674    0.001293   1.000    0.00234    0.00075
        199    26 -109.025331 -109.026758    0.001428   1.000    0.00232    0.00074
        200    25 -109.025282 -109.026801    0.001520   1.000    0.00230    0.00073
        201    25 -109.025235 -109.026802    0.001568   1.000    0.00229    0.00071
        202    26 -109.025191 -109.026763    0.001572   1.000    0.00227    0.00069
        203    26 -109.025150 -109.026685    0.001534   1.000    0.00227    0.00066
        204    26 -109.025114 -109.026574    0.001460   1.000    0.00226    0.00063
        205    26 -109.025082 -109.026435    0.001353   1.000    0.00225    0.00060
        206    26 -109.025054 -109.026273    0.001219   1.000    0.00225    0.00057
        207    26 -109.025031 -109.026093    0.001062   1.000    0.00224    0.00054
        208    27 -109.025012 -109.025904    0.000893   1.000    0.00223    0.00051
        209    27 -109.024997 -109.025693    0.000696   1.000    0.00223    0.00049
        210    27 -109.024986 -109.025478    0.000492   1.000    0.00222    0.00047
        211    27 -109.024980 -109.025258    0.000278   1.000    0.00221    0.00046
        212    27 -109.024977 -109.025034    0.000058   1.000    0.00220    0.00046
        213    27 -109.024977 -109.024810    0.000167   1.000    0.00219    0.00046
        214    27 -109.024981 -109.024588    0.000394   1.000    0.00218    0.00047
        215    27 -109.024987 -109.024406    0.000581   1.000    0.00217    0.00048
        216    27 -109.024995 -109.024229    0.000766   1.000    0.00215    0.00050
        217    27 -109.025006 -109.024033    0.000973   1.000    0.00213    0.00051
        218    27 -109.025019 -109.023842    0.001177   1.000    0.00212    0.00053
        219    26 -109.025034 -109.023672    0.001362   1.000    0.00210    0.00055
        220    26 -109.025049 -109.023572    0.001477   1.000    0.00209    0.00056
        221    26 -109.025066 -109.023447    0.001620   1.000    0.00208    0.00058
        222    26 -109.025085 -109.023332    0.001753   1.000    0.00206    0.00059
        223    26 -109.025105 -109.023229    0.001876   1.000    0.00205    0.00060
        224    26 -109.025125 -109.023140    0.001985   1.000    0.00204    0.00061
        225    26 -109.025147 -109.023068    0.002079   1.000    0.00203    0.00061
        226    26 -109.025168 -109.023013    0.002156   1.000    0.00202    0.00061
        227    26 -109.025190 -109.022977    0.002213   1.000    0.00202    0.00060
        228    24 -109.025213 -109.022960    0.002252   1.000    0.00201    0.00060
        229    24 -109.025234 -109.022966    0.002268   1.000    0.00200    0.00059
        230    26 -109.025254 -109.022995    0.002259   1.000    0.00200    0.00059
        231    24 -109.025274 -109.023045    0.002228   1.000    0.00199    0.00058
        232    25 -109.025291 -109.023120    0.002170   1.000    0.00199    0.00057
        233    25 -109.025306 -109.023219    0.002088   1.000    0.00198    0.00057
        234    24 -109.025320 -109.023339    0.001980   1.000    0.00198    0.00056
        235    26 -109.025329 -109.023481    0.001848   1.000    0.00197    0.00056
        236    24 -109.025336 -109.023639    0.001697   1.000    0.00197    0.00056
        237    24 -109.025340 -109.023812    0.001528   1.000    0.00196    0.00056
        238    24 -109.025341 -109.023995    0.001346   1.000    0.00195    0.00056
        239    25 -109.025340 -109.024184    0.001156   1.000    0.00194    0.00056
        240    24 -109.025335 -109.024374    0.000961   1.000    0.00193    0.00057
        241    24 -109.025326 -109.024561    0.000765   1.000    0.00192    0.00057
        242    25 -109.025317 -109.024741    0.000577   1.000    0.00191    0.00058
        243    24 -109.025305 -109.024910    0.000395   1.000    0.00190    0.00058
        244    25 -109.025291 -109.025066    0.000225   1.000    0.00189    0.00059
        245    24 -109.025275 -109.025206    0.000070   1.000    0.00188    0.00059
        246    24 -109.025258 -109.025327    0.000069   1.000    0.00187    0.00059
        247    24 -109.025240 -109.025429    0.000188   1.000    0.00186    0.00060
        248    24 -109.025222 -109.025510    0.000288   1.000    0.00185    0.00060
        249    24 -109.025203 -109.025570    0.000367   1.000    0.00184    0.00060
        250    24 -109.025183 -109.025609    0.000426   1.000    0.00183    0.00060
        251    24 -109.025165 -109.025629    0.000464   1.000    0.00182    0.00060
        252    25 -109.025147 -109.025629    0.000483   1.000    0.00181    0.00060
        253    24 -109.025129 -109.025612    0.000483   1.000    0.00180    0.00060
        254    25 -109.025113 -109.025579    0.000466   1.000    0.00179    0.00059
        255    25 -109.025096 -109.025531    0.000435   1.000    0.00178    0.00059
        256    24 -109.025084 -109.025472    0.000388   1.000    0.00177    0.00059
        257    24 -109.025072 -109.025402    0.000330   1.000    0.00176    0.00058
        258    26 -109.025061 -109.025326    0.000265   1.000    0.00176    0.00058
        259    26 -109.025052 -109.025242    0.000190   1.000    0.00175    0.00058
        260    25 -109.025045 -109.025153    0.000108   1.000    0.00174    0.00058
        261    25 -109.025040 -109.025063    0.000023   1.000    0.00174    0.00057
        262    24 -109.025036 -109.024972    0.000065   1.000    0.00173    0.00057
        263    25 -109.025034 -109.024882    0.000152   1.000    0.00172    0.00057
        264    24 -109.025033 -109.024794    0.000240   1.000    0.00171    0.00057
        265    24 -109.025034 -109.024709    0.000325   1.000    0.00171    0.00057
        266    24 -109.025036 -109.024630    0.000406   1.000    0.00170    0.00057
        267    25 -109.025039 -109.024555    0.000484   1.000    0.00169    0.00057
        268    24 -109.025042 -109.024486    0.000556   1.000    0.00169    0.00057
        269    25 -109.025047 -109.024424    0.000623   1.000    0.00168    0.00057
        270    24 -109.025052 -109.024369    0.000683   1.000    0.00166    0.00058
        271    24 -109.025063 -109.024384    0.000679   1.000    0.00162    0.00063
        272    24 -109.025084 -109.024521    0.000563   1.000    0.00159    0.00060
        273    24 -109.025092 -109.024558    0.000534   1.000    0.00157    0.00060
        274    24 -109.025093 -109.024572    0.000521   1.000    0.00156    0.00060
        275    24 -109.025091 -109.024560    0.000531   1.000    0.00155    0.00059
        276    25 -109.025089 -109.024527    0.000563   1.000    0.00154    0.00059
        277    24 -109.025088 -109.024483    0.000605   1.000    0.00154    0.00058
        278    25 -109.025089 -109.024440    0.000649   1.000    0.00153    0.00058
        279    24 -109.025089 -109.024404    0.000686   1.000    0.00153    0.00057
        280    24 -109.025088 -109.024378    0.000710   1.000    0.00153    0.00056
        281    24 -109.025087 -109.024361    0.000726   1.000    0.00152    0.00056
        282    24 -109.025087 -109.024353    0.000734   1.000    0.00152    0.00055
        283    24 -109.025088 -109.024349    0.000739   1.000    0.00151    0.00055
        284    25 -109.025088 -109.024348    0.000740   1.000    0.00150    0.00055
        285    25 -109.025090 -109.024351    0.000739   1.000    0.00150    0.00055
        286    25 -109.025092 -109.024357    0.000735   1.000    0.00149    0.00054
        287    25 -109.025095 -109.024369    0.000726   1.000    0.00148    0.00054
        288    24 -109.025094 -109.024388    0.000706   1.000    0.00147    0.00054
        289    24 -109.025096 -109.024416    0.000680   1.000    0.00147    0.00054
        290    24 -109.025097 -109.024453    0.000644   1.000    0.00146    0.00053
        291    24 -109.025098 -109.024498    0.000599   1.000    0.00145    0.00053
        292    25 -109.025097 -109.024552    0.000545   1.000    0.00145    0.00053
        293    24 -109.025097 -109.024612    0.000486   1.000    0.00144    0.00053
        294    25 -109.025096 -109.024675    0.000420   1.000    0.00143    0.00052
        295    25 -109.025094 -109.024740    0.000353   1.000    0.00143    0.00052
        296    24 -109.025090 -109.024805    0.000286   1.000    0.00142    0.00052
        297    24 -109.025086 -109.024866    0.000220   1.000    0.00142    0.00051
        298    24 -109.025082 -109.024922    0.000160   1.000    0.00141    0.00051
        299    24 -109.025076 -109.024973    0.000103   1.000    0.00141    0.00051
        300    25 -109.025068 -109.025017    0.000051   1.000    0.00140    0.00050
        301    25 -109.025061 -109.025053    0.000008   1.000    0.00139    0.00050
        302    25 -109.025053 -109.025082    0.000029   1.000    0.00139    0.00050
        303    25 -109.025044 -109.025102    0.000058   1.000    0.00139    0.00049
        304    25 -109.025035 -109.025114    0.000079   1.000    0.00138    0.00049
        305    25 -109.025026 -109.025119    0.000093   1.000    0.00138    0.00049
        306    24 -109.025017 -109.025115    0.000098   1.000    0.00137    0.00048
        307    25 -109.025008 -109.025106    0.000097   1.000    0.00137    0.00048
        308    24 -109.025000 -109.025089    0.000089   1.000    0.00136    0.00047
        309    24 -109.024992 -109.025067    0.000075   1.000    0.00136    0.00047
        310    25 -109.024984 -109.025040    0.000056   1.000    0.00136    0.00047
        311    24 -109.024978 -109.025009    0.000031   1.000    0.00135    0.00046
        312    25 -109.024973 -109.024976    0.000003   1.000    0.00135    0.00046
        313    25 -109.024968 -109.024939    0.000029   1.000    0.00134    0.00045
        314    25 -109.024963 -109.024901    0.000062   1.000    0.00134    0.00045
        315    25 -109.024960 -109.024863    0.000097   1.000    0.00133    0.00044
        316    24 -109.024958 -109.024825    0.000133   1.000    0.00133    0.00044
        317    25 -109.024956 -109.024788    0.000168   1.000    0.00133    0.00044
        318    25 -109.024955 -109.024752    0.000203   1.000    0.00132    0.00043
        319    25 -109.024954 -109.024718    0.000236   1.000    0.00132    0.00043
        320    25 -109.024954 -109.024687    0.000267   1.000    0.00131    0.00042
        321    24 -109.024955 -109.024659    0.000296   1.000    0.00131    0.00042
        322    25 -109.024957 -109.024633    0.000323   1.000    0.00130    0.00042
        323    25 -109.024956 -109.024611    0.000345   1.000    0.00130    0.00041
        324    24 -109.024958 -109.024593    0.000365   1.000    0.00130    0.00041
        325    25 -109.024958 -109.024578    0.000381   1.000    0.00129    0.00040
        326    25 -109.024960 -109.024566    0.000393   1.000    0.00129    0.00040
        327    24 -109.024961 -109.024559    0.000402   1.000    0.00129    0.00040
        328    25 -109.024962 -109.024554    0.000408   1.000    0.00128    0.00039
        329    25 -109.024963 -109.024553    0.000410   1.000    0.00128    0.00039
        330    25 -109.024963 -109.024554    0.000409   1.000    0.00127    0.00038
        331    24 -109.024964 -109.024559    0.000405   1.000    0.00127    0.00038
        332    24 -109.024964 -109.024566    0.000397   1.000    0.00127    0.00037
        333    25 -109.024963 -109.024575    0.000388   1.000    0.00126    0.00037
        334    25 -109.024962 -109.024587    0.000376   1.000    0.00125    0.00038
        335    24 -109.024966 -109.024657    0.000308   1.000    0.00123    0.00040
        336    24 -109.024972 -109.024780    0.000192   1.000    0.00122    0.00038
        337    25 -109.024970 -109.024835    0.000135   1.000    0.00121    0.00037
        338    24 -109.024964 -109.024870    0.000094   1.000    0.00121    0.00037
        339    24 -109.024956 -109.024884    0.000072   1.000    0.00121    0.00036
        340    24 -109.024949 -109.024883    0.000066   1.000    0.00121    0.00035
        341    24 -109.024942 -109.024874    0.000069   1.000    0.00121    0.00035
        342    25 -109.024935 -109.024861    0.000074   1.000    0.00121    0.00034
        343    25 -109.024929 -109.024847    0.000081   1.000    0.00120    0.00033
        344    24 -109.024923 -109.024835    0.000088   1.000    0.00118    0.00035
        345    24 -109.024924 -109.024901    0.000023   1.000    0.00117    0.00037
        346    25 -109.024932 -109.025030    0.000098   1.000    0.00116    0.00035
        347    25 -109.024932 -109.025107    0.000175   1.000    0.00116    0.00035
        348    24 -109.024928 -109.025164    0.000236   1.000    0.00116    0.00034
        349    25 -109.024922 -109.025193    0.000271   1.000    0.00116    0.00033
        350    24 -109.024914 -109.025194    0.000280   1.000    0.00116    0.00033
        351    24 -109.024907 -109.025172    0.000265   1.000    0.00115    0.00032
        352    27 -109.024899 -109.025134    0.000235   1.000    0.00115    0.00031
        353    27 -109.024892 -109.025088    0.000195   1.000    0.00115    0.00030
        354    25 -109.024886 -109.025037    0.000151   1.000    0.00114    0.00030
        355    24 -109.024879 -109.024987    0.000108   1.000    0.00114    0.00029
        356    25 -109.024874 -109.024940    0.000067   1.000    0.00113    0.00029
        357    27 -109.024867 -109.024898    0.000031   1.000    0.00113    0.00028
        358    25 -109.024862 -109.024861    0.000002   1.000    0.00112    0.00028
        359    27 -109.024857 -109.024826    0.000031   1.000    0.00112    0.00027
        360    27 -109.024853 -109.024796    0.000057   1.000    0.00111    0.00027
        361    27 -109.024850 -109.024770    0.000080   1.000    0.00110    0.00026
        362    27 -109.024848 -109.024746    0.000102   1.000    0.00110    0.00026
        363    27 -109.024846 -109.024727    0.000119   1.000    0.00109    0.00025
        364    27 -109.024845 -109.024713    0.000132   1.000    0.00108    0.00025
        365    27 -109.024844 -109.024705    0.000139   1.000    0.00108    0.00024
        366    27 -109.024843 -109.024704    0.000139   1.000    0.00107    0.00024
        367    27 -109.024843 -109.024710    0.000133   1.000    0.00107    0.00023
        368    27 -109.024842 -109.024722    0.000120   1.000    0.00106    0.00023
        369    27 -109.024841 -109.024738    0.000103   1.000    0.00106    0.00023
        370    27 -109.024839 -109.024758    0.000081   1.000    0.00105    0.00022
        371    27 -109.024837 -109.024783    0.000054   1.000    0.00105    0.00022
        372    27 -109.024834 -109.024806    0.000029   1.000    0.00105    0.00022
        373    27 -109.024831 -109.024825    0.000007   1.000    0.00105    0.00021
        374    27 -109.024828 -109.024838    0.000010   1.000    0.00105    0.00021
        375    27 -109.024824 -109.024844    0.000020   1.000    0.00104    0.00021
        376    27 -109.024821 -109.024844    0.000023   1.000    0.00104    0.00020
        377    27 -109.024817 -109.024836    0.000019   1.000    0.00104    0.00020
        378    27 -109.024813 -109.024822    0.000009   1.000    0.00104    0.00019
        379    27 -109.024809 -109.024802    0.000007   1.000    0.00103    0.00019
        380    27 -109.024805 -109.024779    0.000027   1.000    0.00103    0.00019
        381    27 -109.024802 -109.024752    0.000050   1.000    0.00103    0.00018
        382    27 -109.024800 -109.024723    0.000077   1.000    0.00102    0.00018
        383    27 -109.024797 -109.024693    0.000104   1.000    0.00102    0.00018
        384    27 -109.024796 -109.024690    0.000106   1.000    0.00101    0.00017
        385    27 -109.024793 -109.024672    0.000121   1.000    0.00101    0.00017
        386    27 -109.024791 -109.024656    0.000135   1.000    0.00101    0.00017
        387    27 -109.024789 -109.024648    0.000141   1.000    0.00100    0.00017
        388    27 -109.024788 -109.024650    0.000138   1.000    0.00100    0.00017
        389    27 -109.024787 -109.024660    0.000127   1.000    0.00100    0.00017
        390    27 -109.024786 -109.024675    0.000111   1.000    0.00100    0.00016
        391    27 -109.024785 -109.024694    0.000091   1.000    0.00099    0.00016
        392    27 -109.024784 -109.024713    0.000071   1.000    0.00099    0.00015
        393    27 -109.024781 -109.024730    0.000052   1.000    0.00099    0.00015
        394    27 -109.024778 -109.024744    0.000034   1.000    0.00099    0.00014
        395    27 -109.024774 -109.024755    0.000019   1.000    0.00098    0.00014
        396    27 -109.024770 -109.024763    0.000007   1.000    0.00098    0.00013
        397    27 -109.024766 -109.024767    0.000001   1.000    0.00098    0.00013
        398    27 -109.024761 -109.024767    0.000006   1.000    0.00097    0.00012
        399    27 -109.024757 -109.024763    0.000007   1.000    0.00097    0.00012
        400    27 -109.024753 -109.024756    0.000004   1.000    0.00097    0.00012
        401    27 -109.024749 -109.024746    0.000003   1.000    0.00096    0.00012
        402    27 -109.024746 -109.024732    0.000013   1.000    0.00096    0.00011
        403    27 -109.024743 -109.024716    0.000027   1.000    0.00096    0.00011
        404    27 -109.024740 -109.024698    0.000043   1.000    0.00095    0.00011
        405    27 -109.024739 -109.024678    0.000061   1.000    0.00095    0.00011
        406    27 -109.024737 -109.024658    0.000079   1.000    0.00094    0.00011
        407    27 -109.024736 -109.024638    0.000098   1.000    0.00094    0.00011
        408    27 -109.024736 -109.024619    0.000117   1.000    0.00091    0.00018
        409    24 -109.024742 -109.024697    0.000045   1.000    0.00089    0.00017
        410    27 -109.024747 -109.024781    0.000034   1.000    0.00088    0.00017
        411    27 -109.024750 -109.024839    0.000089   1.000    0.00087    0.00017
        412    27 -109.024750 -109.024887    0.000137   1.000    0.00087    0.00017
        413    27 -109.024749 -109.024923    0.000175   1.000    0.00087    0.00016
        414    27 -109.024746 -109.024945    0.000199   1.000    0.00087    0.00016
        415    27 -109.024742 -109.024950    0.000208   1.000    0.00086    0.00015
        416    27 -109.024738 -109.024942    0.000204   1.000    0.00086    0.00014
        417    27 -109.024734 -109.024923    0.000189   1.000    0.00085    0.00014
        418    27 -109.024729 -109.024897    0.000168   1.000    0.00085    0.00013
        419    27 -109.024724 -109.024867    0.000143   1.000    0.00084    0.00012
        420    27 -109.024719 -109.024838    0.000119   1.000    0.00084    0.00012
        421    27 -109.024714 -109.024811    0.000097   1.000    0.00083    0.00011
        422    27 -109.024710 -109.024787    0.000078   1.000    0.00082    0.00011
        423    27 -109.024705 -109.024768    0.000062   1.000    0.00082    0.00010
        424    27 -109.024701 -109.024751    0.000050   1.000    0.00081    0.00010
        425    27 -109.024698 -109.024736    0.000039   1.000    0.00080    0.00010
        426    27 -109.024694 -109.024723    0.000029   1.000    0.00080    0.00010
        427    27 -109.024692 -109.024711    0.000020   1.000    0.00079    0.00010
        428    27 -109.024689 -109.024701    0.000012   1.000    0.00078    0.00010
        429    27 -109.024687 -109.024693    0.000006   1.000    0.00078    0.00010
        430    27 -109.024685 -109.024687    0.000002   1.000    0.00077    0.00010
        431    27 -109.024683 -109.024685    0.000002   1.000    0.00076    0.00010
        432    27 -109.024681 -109.024685    0.000004   1.000    0.00076    0.00010
        433    27 -109.024679 -109.024687    0.000008   1.000    0.00075    0.00010
        434    27 -109.024677 -109.024691    0.000014   1.000    0.00075    0.00010
        435    27 -109.024675 -109.024696    0.000021   1.000    0.00074    0.00010
        436    27 -109.024673 -109.024701    0.000027   1.000    0.00074    0.00010
        437    27 -109.024671 -109.024704    0.000033   1.000    0.00074    0.00010
        438    27 -109.024670 -109.024705    0.000036   1.000    0.00073    0.00010
        439    27 -109.024668 -109.024704    0.000036   1.000    0.00073    0.00010
        440    27 -109.024666 -109.024700    0.000034   1.000    0.00073    0.00010
        441    27 -109.024664 -109.024693    0.000029   1.000    0.00073    0.00010
        442    27 -109.024663 -109.024683    0.000020   1.000    0.00072    0.00010
        443    27 -109.024661 -109.024671    0.000009   1.000    0.00072    0.00010
        444    27 -109.024660 -109.024656    0.000004   1.000    0.00072    0.00010
        445    27 -109.024659 -109.024639    0.000020   1.000    0.00072    0.00010
        446    27 -109.024657 -109.024621    0.000036   1.000    0.00071    0.00010
        447    27 -109.024656 -109.024603    0.000054   1.000    0.00071    0.00010
        448    27 -109.024655 -109.024584    0.000071   1.000    0.00071    0.00010
        449    27 -109.024654 -109.024566    0.000089   1.000    0.00070    0.00010
        450    27 -109.024654 -109.024549    0.000105   1.000    0.00070    0.00010
        451    27 -109.024653 -109.024534    0.000120   1.000    0.00070    0.00010
        452    27 -109.024653 -109.024520    0.000132   1.000    0.00069    0.00010
        453    27 -109.024653 -109.024510    0.000143   1.000    0.00069    0.00010
        454    27 -109.024652 -109.024501    0.000151   1.000    0.00068    0.00010
        455    26 -109.024652 -109.024496    0.000157   1.000    0.00068    0.00010
        456    27 -109.024652 -109.024494    0.000159   1.000    0.00067    0.00010
        457    26 -109.024653 -109.024494    0.000159   1.000    0.00067    0.00010
        458    27 -109.024653 -109.024497    0.000156   1.000    0.00066    0.00010
        459    27 -109.024653 -109.024502    0.000150   1.000    0.00066    0.00010
        460    27 -109.024652 -109.024510    0.000143   1.000    0.00066    0.00010
        461    27 -109.024652 -109.024519    0.000133   1.000    0.00065    0.00010
        462    27 -109.024652 -109.024530    0.000121   1.000    0.00065    0.00010
        463    24 -109.024652 -109.024543    0.000109   1.000    0.00064    0.00010
        464    24 -109.024651 -109.024555    0.000096   1.000    0.00064    0.00010
        465    27 -109.024650 -109.024568    0.000082   1.000    0.00064    0.00010
        466    24 -109.024649 -109.024582    0.000067   1.000    0.00063    0.00010
        467    27 -109.024648 -109.024594    0.000054   1.000    0.00063    0.00010
        468    27 -109.024646 -109.024607    0.000040   1.000    0.00063    0.00010
        469    27 -109.024645 -109.024618    0.000027   1.000    0.00062    0.00010
        470    27 -109.024643 -109.024628    0.000015   1.000    0.00062    0.00010
        471    27 -109.024641 -109.024637    0.000005   1.000    0.00062    0.00010
        472    24 -109.024639 -109.024644    0.000005   1.000    0.00062    0.00010
        473    27 -109.024637 -109.024649    0.000012   1.000    0.00061    0.00010
        474    24 -109.024635 -109.024653    0.000018   1.000    0.00061    0.00010
        475    27 -109.024633 -109.024655    0.000022   1.000    0.00061    0.00010
        476    24 -109.024631 -109.024656    0.000025   1.000    0.00061    0.00010
        477    27 -109.024628 -109.024654    0.000025   1.000    0.00060    0.00010
        478    24 -109.024626 -109.024652    0.000026   1.000    0.00060    0.00010
        479    24 -109.024624 -109.024648    0.000023   1.000    0.00060    0.00010
        480    27 -109.024622 -109.024642    0.000021   1.000    0.00060    0.00010
        481    24 -109.024620 -109.024637    0.000017   1.000    0.00059    0.00010
        482    24 -109.024618 -109.024630    0.000012   1.000    0.00059    0.00010
        483    24 -109.024616 -109.024622    0.000006   1.000    0.00059    0.00010
        484    24 -109.024615 -109.024614    0.000001   1.000    0.00059    0.00010
        485    27 -109.024613 -109.024606    0.000007   1.000    0.00059    0.00010
        486    24 -109.024612 -109.024598    0.000014   1.000    0.00058    0.00010
        487    27 -109.024610 -109.024589    0.000021   1.000    0.00058    0.00010
        488    24 -109.024610 -109.024582    0.000028   1.000    0.00058    0.00010
        489    24 -109.024609 -109.024573    0.000036   1.000    0.00058    0.00010
        490    27 -109.024607 -109.024565    0.000042   1.000    0.00057    0.00010
        491    25 -109.024607 -109.024559    0.000048   1.000    0.00057    0.00010
        492    24 -109.024606 -109.024552    0.000055   1.000    0.00057    0.00010
        493    25 -109.024606 -109.024546    0.000060   1.000    0.00057    0.00010
        494    24 -109.024605 -109.024540    0.000065   1.000    0.00056    0.00010
        495    24 -109.024605 -109.024536    0.000069   1.000    0.00056    0.00010
        496    27 -109.024604 -109.024531    0.000073   1.000    0.00056    0.00010
        497    27 -109.024604 -109.024528    0.000076   1.000    0.00056    0.00010
        498    25 -109.024604 -109.024525    0.000078   1.000    0.00056    0.00010
        499    27 -109.024603 -109.024522    0.000081   1.000    0.00055    0.00010

        ==> Orbital Optimization <==

            Orbital Optimization did not converge in  20 iterations 
            Total energy change: -3.767376e-02
            Final gradient norm: 1.902107e-04

        500    24 -109.062277 -108.994294    0.067983   5.773    0.00055    0.00010
        501    33 -109.073090 -108.613317    0.459774   5.773    0.01942    0.19874
        502    27 -109.080241 -108.795910    0.284331   5.773    0.02851    0.13922
        503    24 -109.083161 -108.994208    0.088953   5.773    0.02729    0.10725
        504    24 -109.083797 -109.076865    0.006932   5.773    0.02270    0.10013
        505    26 -109.082889 -109.079134    0.003754   5.773    0.01904    0.10024
        506    25 -109.080620 -109.064829    0.015791   5.773    0.01639    0.10047
        507    24 -109.077426 -109.076373    0.001052   5.773    0.01486    0.09658
        508    27 -109.077282 -109.113258    0.035976   5.773    0.01115    0.08934
        509    27 -109.077688 -109.179498    0.101810   5.773    0.00896    0.08050
        510    27 -109.076695 -109.244271    0.167576   5.773    0.00822    0.07262
        511    27 -109.076466 -109.288071    0.211605   5.773    0.00802    0.06654
        512    27 -109.076313 -109.314239    0.237926   5.773    0.00826    0.06156
        513    24 -109.075845 -109.318825    0.242980   5.773    0.00807    0.05858
        514    25 -109.076138 -109.308631    0.232493   5.773    0.00787    0.05682
        515    24 -109.076470 -109.289440    0.212970   5.773    0.00721    0.05609
        516    26 -109.076538 -109.271955    0.195417   5.773    0.00625    0.05457
        517    26 -109.076536 -109.259683    0.183147   5.773    0.00553    0.05207
        518    26 -109.076532 -109.249260    0.172728   5.773    0.00527    0.04935
        519    25 -109.076627 -109.242143    0.165516   5.773    0.00536    0.04659
        520    25 -109.076694 -109.231604    0.154910   5.773    0.00549    0.04430
        521    24 -109.076695 -109.220222    0.143527   5.773    0.00522    0.04413
        522    27 -109.076621 -109.213556    0.136934   5.773    0.00555    0.04049
        523    27 -109.076408 -109.199085    0.122676   5.773    0.00583    0.03844
        524    27 -109.076157 -109.182732    0.106574   5.773    0.00604    0.03629
        525    27 -109.075969 -109.165972    0.090003   5.773    0.00618    0.03422
        526    27 -109.075816 -109.149659    0.073843   5.773    0.00620    0.03236
        527    24 -109.075659 -109.134576    0.058916   5.773    0.00619    0.03076
        528    25 -109.075765 -109.120986    0.045221   5.773    0.00622    0.02940
        529    24 -109.076133 -109.107557    0.031423   5.773    0.00619    0.02837
        530    27 -109.076588 -109.096072    0.019485   5.773    0.00615    0.02735
        531    27 -109.077067 -109.085548    0.008480   5.773    0.00612    0.02640
        532    27 -109.077534 -109.075560    0.001974   5.773    0.00610    0.02551
        533    27 -109.077969 -109.067380    0.010589   5.773    0.00609    0.02453
        534    27 -109.078078 -109.062932    0.015146   5.773    0.00574    0.02355
        535    27 -109.078193 -109.068375    0.009818   5.773    0.00567    0.02181
        536    27 -109.078135 -109.075927    0.002208   5.773    0.00563    0.02026
        537    27 -109.078122 -109.085768    0.007646   5.773    0.00561    0.01907
        538    27 -109.078161 -109.092863    0.014702   5.773    0.00559    0.01834
        539    27 -109.078230 -109.095947    0.017717   5.773    0.00560    0.01767
        540    27 -109.078301 -109.095412    0.017111   5.773    0.00562    0.01697
        541    27 -109.078356 -109.092525    0.014169   5.773    0.00562    0.01632
        542    27 -109.078392 -109.088745    0.010353   5.773    0.00558    0.01585
        543    27 -109.078416 -109.085460    0.007044   5.773    0.00551    0.01551
        544    27 -109.078434 -109.083143    0.004709   5.773    0.00543    0.01521
        545    27 -109.078446 -109.081459    0.003013   5.773    0.00537    0.01496
        546    27 -109.078253 -109.081891    0.003639   5.773    0.00510    0.01492
        547    27 -109.078187 -109.085442    0.007254   5.773    0.00494    0.01466
        548    27 -109.078156 -109.087581    0.009425   5.773    0.00480    0.01450
        549    27 -109.078128 -109.088879    0.010751   5.773    0.00467    0.01427
        550    27 -109.078087 -109.089567    0.011481   5.773    0.00456    0.01396
        551    27 -109.078026 -109.089998    0.011971   5.773    0.00445    0.01361
        552    27 -109.077952 -109.090476    0.012524   5.773    0.00434    0.01322
        553    26 -109.077869 -109.091250    0.013381   5.773    0.00422    0.01281
        554    25 -109.077780 -109.092381    0.014601   5.773    0.00410    0.01238
        555    24 -109.077607 -109.094039    0.016433   5.773    0.00393    0.01205
        556    24 -109.077526 -109.098127    0.020601   5.773    0.00380    0.01162
        557    26 -109.077464 -109.101898    0.024434   5.773    0.00367    0.01126
        558    25 -109.077407 -109.105276    0.027869   5.773    0.00354    0.01090
        559    26 -109.077351 -109.108334    0.030983   5.773    0.00341    0.01052
        560    24 -109.077297 -109.111011    0.033714   5.773    0.00329    0.01021
        561    24 -109.077257 -109.114329    0.037072   5.773    0.00318    0.00989
        562    26 -109.077211 -109.116720    0.039509   5.773    0.00308    0.00966
        563    26 -109.077154 -109.118475    0.041322   5.773    0.00297    0.00954
        564    26 -109.077085 -109.119740    0.042655   5.773    0.00283    0.00982
        565    21 -109.076995 -109.122117    0.045122   5.773    0.00268    0.00969
        566    24 -109.076912 -109.122882    0.045971   5.773    0.00255    0.00982
        567    24 -109.076827 -109.122971    0.046143   5.773    0.00243    0.00994
        568    24 -109.076747 -109.122585    0.045838   5.773    0.00233    0.01001
        569    24 -109.076667 -109.121880    0.045213   5.773    0.00224    0.01002
        570    26 -109.076587 -109.120985    0.044398   5.773    0.00216    0.00995
        571    24 -109.076507 -109.119966    0.043459   5.773    0.00209    0.00982
        572    26 -109.076427 -109.118824    0.042396   5.773    0.00202    0.00964
        573    26 -109.076349 -109.117702    0.041353   5.773    0.00196    0.00941
        574    27 -109.076280 -109.116784    0.040504   5.773    0.00190    0.00916
        575    27 -109.076187 -109.115751    0.039564   5.773    0.00183    0.00892
        576    27 -109.076077 -109.114150    0.038072   5.773    0.00176    0.00868
        577    27 -109.076006 -109.112128    0.036123   5.773    0.00171    0.00842
        578    27 -109.075946 -109.109530    0.033585   5.773    0.00168    0.00812
        579    27 -109.075898 -109.106676    0.030777   5.773    0.00167    0.00778
        580    27 -109.075819 -109.103674    0.027854   5.773    0.00166    0.00736
        581    27 -109.075761 -109.101224    0.025464   5.773    0.00167    0.00692
        582    27 -109.075735 -109.098824    0.023090   5.773    0.00163    0.00691
        583    24 -109.075754 -109.097434    0.021680   5.773    0.00163    0.00628
        584    24 -109.075775 -109.095009    0.019234   5.773    0.00160    0.00608
        585    24 -109.075811 -109.093004    0.017193   5.773    0.00156    0.00614
        586    27 -109.075848 -109.091792    0.015945   5.773    0.00156    0.00577
        587    24 -109.075873 -109.090016    0.014143   5.773    0.00156    0.00566
        588    24 -109.075830 -109.088500    0.012670   5.773    0.00148    0.00561
        589    24 -109.075798 -109.087501    0.011703   5.773    0.00145    0.00558
        590    24 -109.075800 -109.086740    0.010940   5.773    0.00143    0.00558
        591    24 -109.075805 -109.085974    0.010169   5.773    0.00139    0.00562
        592    24 -109.075812 -109.085175    0.009363   5.773    0.00135    0.00568
        593    24 -109.075824 -109.084299    0.008475   5.773    0.00131    0.00576
        594    24 -109.075839 -109.083350    0.007511   5.773    0.00127    0.00583
        595    24 -109.075857 -109.082359    0.006502   5.773    0.00123    0.00590
        596    24 -109.075879 -109.081374    0.005495   5.773    0.00119    0.00594
        597    24 -109.075904 -109.080438    0.004534   5.773    0.00116    0.00594
        598    24 -109.075933 -109.079584    0.003651   5.773    0.00113    0.00590
        599    26 -109.075966 -109.078835    0.002869   5.773    0.00111    0.00581
        600    27 -109.076004 -109.078196    0.002192   5.773    0.00111    0.00572
        601    27 -109.076061 -109.078441    0.002380   5.773    0.00114    0.00554
        602    27 -109.076117 -109.078447    0.002330   5.773    0.00119    0.00533
        603    27 -109.076166 -109.078433    0.002266   5.773    0.00127    0.00517
        604    27 -109.076232 -109.079353    0.003121   5.773    0.00138    0.00493
        605    27 -109.076226 -109.079811    0.003585   5.773    0.00133    0.00472
        606    27 -109.076198 -109.080440    0.004241   5.773    0.00135    0.00448
        607    27 -109.076217 -109.081187    0.004970   5.773    0.00143    0.00420
        608    26 -109.076073 -109.081746    0.005673   5.773    0.00105    0.00426
        609    27 -109.076037 -109.083016    0.006978   5.773    0.00106    0.00392
        610    27 -109.076020 -109.084140    0.008120   5.773    0.00108    0.00380
        611    27 -109.075996 -109.085135    0.009138   5.773    0.00110    0.00371
        612    27 -109.075969 -109.086021    0.010052   5.773    0.00112    0.00363
        613    27 -109.075938 -109.086786    0.010848   5.773    0.00115    0.00359
        614    24 -109.075906 -109.087451    0.011545   5.773    0.00117    0.00360
        615    26 -109.075877 -109.088002    0.012125   5.773    0.00118    0.00365
        616    24 -109.075850 -109.088497    0.012647   5.773    0.00118    0.00375
        617    24 -109.075827 -109.088928    0.013101   5.773    0.00118    0.00387
        618    24 -109.075807 -109.089314    0.013507   5.773    0.00117    0.00401
        619    26 -109.075791 -109.089660    0.013869   5.773    0.00115    0.00414
        620    24 -109.075776 -109.089982    0.014207   5.773    0.00112    0.00424
        621    24 -109.075762 -109.090276    0.014514   5.773    0.00109    0.00431
        622    24 -109.075749 -109.090550    0.014801   5.773    0.00107    0.00434
        623    24 -109.075736 -109.090798    0.015063   5.773    0.00104    0.00432
        624    25 -109.075721 -109.091013    0.015292   5.773    0.00102    0.00426
        625    24 -109.075704 -109.091179    0.015476   5.773    0.00100    0.00416
        626    24 -109.075684 -109.091281    0.015597   5.773    0.00099    0.00402
        627    24 -109.075663 -109.091301    0.015638   5.773    0.00098    0.00387
        628    24 -109.075639 -109.091221    0.015582   5.773    0.00098    0.00370
        629    21 -109.075614 -109.091033    0.015420   5.773    0.00097    0.00354
        630    24 -109.075586 -109.090701    0.015115   5.773    0.00097    0.00338
        631    24 -109.075558 -109.090256    0.014698   5.773    0.00097    0.00324
        632    25 -109.075531 -109.089674    0.014143   5.773    0.00096    0.00313
        633    24 -109.075505 -109.088963    0.013459   5.773    0.00096    0.00303
        634    24 -109.075481 -109.088134    0.012653   5.773    0.00095    0.00296
        635    24 -109.075460 -109.087198    0.011738   5.773    0.00094    0.00292
        636    24 -109.075444 -109.086173    0.010729   5.773    0.00093    0.00291
        637    24 -109.075432 -109.085081    0.009649   5.773    0.00092    0.00291
        638    24 -109.075426 -109.083943    0.008517   5.773    0.00090    0.00294
        639    25 -109.075425 -109.082784    0.007359   5.773    0.00088    0.00298
        640    24 -109.075429 -109.081629    0.006199   5.773    0.00086    0.00304
        641    24 -109.075440 -109.080502    0.005062   5.773    0.00084    0.00311
        642    25 -109.075455 -109.079428    0.003973   5.773    0.00081    0.00317
        643    24 -109.075475 -109.078428    0.002953   5.773    0.00079    0.00324
        644    24 -109.075500 -109.077523    0.002023   5.773    0.00076    0.00329
        645    24 -109.075529 -109.076730    0.001202   5.773    0.00074    0.00333
        646    21 -109.075560 -109.076070    0.000510   5.773    0.00072    0.00336
        647    24 -109.075593 -109.075529    0.000064   5.773    0.00070    0.00336
        648    21 -109.075627 -109.075153    0.000474   5.773    0.00069    0.00334
        649    21 -109.075661 -109.074910    0.000752   5.773    0.00068    0.00330
        650    21 -109.075695 -109.074814    0.000882   5.773    0.00068    0.00324
        651    21 -109.075728 -109.074860    0.000868   5.773    0.00068    0.00316
        652    24 -109.075759 -109.075034    0.000725   5.773    0.00069    0.00306
        653    24 -109.075787 -109.075337    0.000450   5.773    0.00070    0.00296
        654    24 -109.075812 -109.075746    0.000065   5.773    0.00071    0.00286
        655    24 -109.075833 -109.076250    0.000417   5.773    0.00072    0.00275
        656    24 -109.075850 -109.076832    0.000982   5.773    0.00073    0.00266
        657    27 -109.075864 -109.077467    0.001603   5.773    0.00074    0.00257
        658    27 -109.075874 -109.078161    0.002288   5.773    0.00075    0.00251
        659    27 -109.075879 -109.078874    0.002995   5.773    0.00076    0.00246
        660    27 -109.075880 -109.079597    0.003716   5.773    0.00076    0.00243
        661    24 -109.075878 -109.080322    0.004444   5.773    0.00077    0.00242
        662    27 -109.075873 -109.081003    0.005130   5.773    0.00077    0.00243
        663    27 -109.075865 -109.081679    0.005814   5.773    0.00077    0.00246
        664    24 -109.075854 -109.082312    0.006458   5.773    0.00076    0.00250
        665    24 -109.075841 -109.082878    0.007037   5.773    0.00075    0.00254
        666    24 -109.075827 -109.083394    0.007567   5.773    0.00074    0.00259
        667    24 -109.075811 -109.083847    0.008036   5.773    0.00073    0.00264
        668    24 -109.075795 -109.084234    0.008439   5.773    0.00072    0.00268
        669    24 -109.075778 -109.084550    0.008771   5.773    0.00070    0.00272
        670    24 -109.075761 -109.084793    0.009032   5.773    0.00068    0.00275
        671    24 -109.075744 -109.084963    0.009220   5.773    0.00066    0.00276
        672    21 -109.075726 -109.085062    0.009335   5.773    0.00064    0.00276
        673    17 -109.075710 -109.085075    0.009365   5.773    0.00062    0.00275
        674    21 -109.075693 -109.085040    0.009347   5.773    0.00060    0.00272
        675    24 -109.075677 -109.084913    0.009235   5.773    0.00059    0.00269
        676    24 -109.075662 -109.084728    0.009067   5.773    0.00057    0.00264
        677    24 -109.075647 -109.084478    0.008830   5.773    0.00056    0.00259
        678    26 -109.075633 -109.084166    0.008533   5.773    0.00055    0.00253
        679    24 -109.075621 -109.083795    0.008174   5.773    0.00054    0.00246
        680    24 -109.075609 -109.083373    0.007764   5.773    0.00053    0.00240
        681    26 -109.075599 -109.082902    0.007304   5.773    0.00053    0.00234
        682    24 -109.075590 -109.082386    0.006796   5.773    0.00052    0.00229
        683    26 -109.075583 -109.081838    0.006255   5.773    0.00052    0.00225
        684    24 -109.075578 -109.081256    0.005678   5.773    0.00051    0.00222
        685    26 -109.075575 -109.080656    0.005082   5.773    0.00050    0.00220
        686    27 -109.075573 -109.080042    0.004469   5.773    0.00049    0.00219
        687    26 -109.075574 -109.079415    0.003841   5.773    0.00048    0.00219
        688    27 -109.075577 -109.078804    0.003227   5.773    0.00047    0.00220
        689    27 -109.075582 -109.078195    0.002613   5.773    0.00046    0.00221
        690    27 -109.075590 -109.077611    0.002022   5.773    0.00045    0.00223
        691    27 -109.075599 -109.077058    0.001459   5.773    0.00044    0.00225
        692    27 -109.075610 -109.076542    0.000932   5.773    0.00043    0.00227
        693    27 -109.075623 -109.076073    0.000449   5.773    0.00042    0.00228
        694    27 -109.075638 -109.075656    0.000018   5.773    0.00041    0.00229
        695    27 -109.075654 -109.075297    0.000357   5.773    0.00040    0.00229
        696    27 -109.075671 -109.075001    0.000669   5.773    0.00040    0.00229
        697    27 -109.075688 -109.074772    0.000916   5.773    0.00039    0.00227
        698    27 -109.075706 -109.074612    0.001094   5.773    0.00039    0.00224
        699    27 -109.075724 -109.074522    0.001202   5.773    0.00039    0.00221
        700    27 -109.075742 -109.074501    0.001241   5.773    0.00039    0.00217
        701    27 -109.075759 -109.074548    0.001211   5.773    0.00039    0.00212
        702    27 -109.075775 -109.074660    0.001115   5.773    0.00039    0.00206
        703    27 -109.075790 -109.074831    0.000958   5.773    0.00040    0.00201
        704    27 -109.075803 -109.075058    0.000745   5.773    0.00040    0.00195
        705    27 -109.075815 -109.075333    0.000482   5.773    0.00040    0.00189
        706    24 -109.075826 -109.075648    0.000178   5.773    0.00040    0.00183
        707    27 -109.075834 -109.075999    0.000166   5.773    0.00041    0.00178
        708    27 -109.075840 -109.076375    0.000535   5.773    0.00041    0.00174
        709    27 -109.075844 -109.076767    0.000923   5.773    0.00040    0.00171
        710    24 -109.075847 -109.077166    0.001319   5.773    0.00040    0.00168
        711    27 -109.075847 -109.077566    0.001719   5.773    0.00040    0.00166
        712    27 -109.075845 -109.077958    0.002113   5.773    0.00039    0.00165
        713    27 -109.075842 -109.078334    0.002492   5.773    0.00038    0.00165
        714    27 -109.075837 -109.078686    0.002849   5.773    0.00038    0.00165
        715    27 -109.075830 -109.079008    0.003177   5.773    0.00037    0.00165
        716    27 -109.075822 -109.079294    0.003472   5.773    0.00036    0.00166
        717    27 -109.075813 -109.079540    0.003726   5.773    0.00035    0.00166
        718    27 -109.075804 -109.079741    0.003937   5.773    0.00034    0.00166
        719    27 -109.075793 -109.079895    0.004102   5.773    0.00033    0.00166
        720    27 -109.075783 -109.080000    0.004218   5.773    0.00033    0.00165
        721    27 -109.075772 -109.080055    0.004283   5.773    0.00032    0.00164
        722    27 -109.075761 -109.080059    0.004298   5.773    0.00032    0.00162
        723    27 -109.075750 -109.080014    0.004264   5.773    0.00031    0.00159
        724    27 -109.075740 -109.079921    0.004181   5.773    0.00031    0.00156
        725    27 -109.075730 -109.079782    0.004052   5.773    0.00031    0.00152
        726    27 -109.075721 -109.079601    0.003880   5.773    0.00031    0.00148
        727    27 -109.075713 -109.079380    0.003667   5.773    0.00032    0.00143
        728    27 -109.075706 -109.079125    0.003419   5.773    0.00032    0.00138
        729    27 -109.075699 -109.078839    0.003139   5.773    0.00032    0.00133
        730    27 -109.075694 -109.078528    0.002833   5.773    0.00033    0.00129
        731    27 -109.075691 -109.078196    0.002505   5.773    0.00033    0.00124
        732    27 -109.075688 -109.077849    0.002161   5.773    0.00033    0.00120
        733    27 -109.075687 -109.077492    0.001806   5.773    0.00033    0.00116
        734    27 -109.075686 -109.077131    0.001445   5.773    0.00033    0.00113
        735    27 -109.075688 -109.076770    0.001083   5.773    0.00033    0.00111
        736    27 -109.075690 -109.076416    0.000726   5.773    0.00033    0.00109
        737    27 -109.075693 -109.076072    0.000378   5.773    0.00033    0.00108
        738    27 -109.075698 -109.075743    0.000045   5.773    0.00033    0.00108
        739    27 -109.075704 -109.075433    0.000270   5.773    0.00032    0.00108
        740    27 -109.075710 -109.075147    0.000563   5.773    0.00032    0.00108
        741    27 -109.075717 -109.074888    0.000830   5.773    0.00032    0.00108
        742    27 -109.075725 -109.074657    0.001068   5.773    0.00031    0.00108
        743    27 -109.075734 -109.074458    0.001275   5.773    0.00031    0.00107
        744    27 -109.075742 -109.074293    0.001449   5.773    0.00030    0.00107
        745    27 -109.075752 -109.074163    0.001589   5.773    0.00030    0.00105
        746    27 -109.075761 -109.074067    0.001693   5.773    0.00030    0.00104
        747    27 -109.075770 -109.074008    0.001762   5.773    0.00030    0.00101
        748    27 -109.075779 -109.073983    0.001796   5.773    0.00030    0.00099
        749    27 -109.075788 -109.073992    0.001796   5.773    0.00030    0.00095
        750    27 -109.075796 -109.074033    0.001763   5.773    0.00030    0.00091
        751    27 -109.075804 -109.074105    0.001699   5.773    0.00030    0.00087
        752    27 -109.075811 -109.074205    0.001606   5.773    0.00030    0.00083
        753    27 -109.075818 -109.074331    0.001487   5.773    0.00030    0.00078
        754    27 -109.075823 -109.074478    0.001345   5.773    0.00030    0.00073
        755    27 -109.075828 -109.074644    0.001184   5.773    0.00030    0.00069
        756    27 -109.075832 -109.074825    0.001007   5.773    0.00030    0.00065
        757    27 -109.075834 -109.075017    0.000818   5.773    0.00030    0.00061
        758    27 -109.075836 -109.075217    0.000620   5.773    0.00030    0.00058
        759    27 -109.075837 -109.075420    0.000417   5.773    0.00030    0.00055
        760    27 -109.075837 -109.075623    0.000215   5.773    0.00030    0.00054
        761    27 -109.075836 -109.075822    0.000015   5.773    0.00029    0.00053
        762    27 -109.075834 -109.076013    0.000179   5.773    0.00029    0.00053
        763    27 -109.075832 -109.076193    0.000362   5.773    0.00029    0.00054
        764    27 -109.075828 -109.076360    0.000532   5.773    0.00029    0.00055
        765    27 -109.075824 -109.076510    0.000686   5.773    0.00029    0.00057
        766    27 -109.075820 -109.076641    0.000821   5.773    0.00028    0.00058
        767    27 -109.075815 -109.076751    0.000936   5.773    0.00028    0.00059
        768    27 -109.075809 -109.076838    0.001029   5.773    0.00028    0.00060
        769    27 -109.075803 -109.076902    0.001099   5.773    0.00028    0.00061
        770    27 -109.075798 -109.076941    0.001144   5.773    0.00028    0.00062
[...]
       3352    23 -109.094405 -109.094403    0.000002   3.759    0.00000    0.00000
       3353    24 -109.094405 -109.094403    0.000002   3.759    0.00000    0.00000
       3354    23 -109.094405 -109.094403    0.000002   3.759    0.00000    0.00000
       3355    23 -109.094405 -109.094403    0.000002   3.759    0.00000    0.00000
       3356    23 -109.094405 -109.094403    0.000002   3.759    0.00000    0.00000
       3357    24 -109.094405 -109.094403    0.000002   3.759    0.00000    0.00000
       3358    23 -109.094405 -109.094403    0.000002   3.759    0.00000    0.00000
       3359    23 -109.094405 -109.094403    0.000002   3.759    0.00000    0.00000
       3360    23 -109.094405 -109.094403    0.000002   3.759    0.00000    0.00000
       3361    24 -109.094405 -109.094403    0.000002   3.759    0.00000    0.00000
       3362    23 -109.094405 -109.094403    0.000002   3.759    0.00000    0.00000
       3363    23 -109.094405 -109.094403    0.000002   3.759    0.00000    0.00000
       3364    23 -109.094405 -109.094403    0.000002   3.759    0.00000    0.00000
       3365    24 -109.094405 -109.094403    0.000002   3.759    0.00000    0.00000
       3366    23 -109.094405 -109.094403    0.000002   3.759    0.00000    0.00000
       3367    23 -109.094405 -109.094403    0.000002   3.759    0.00000    0.00000
       3368    23 -109.094405 -109.094403    0.000002   3.759    0.00000    0.00000
       3369    24 -109.094405 -109.094403    0.000002   3.759    0.00000    0.00000
       3370    23 -109.094405 -109.094403    0.000002   3.759    0.00000    0.00000
       3371    23 -109.094405 -109.094403    0.000002   3.759    0.00000    0.00000
       3372    23 -109.094405 -109.094403    0.000002   3.759    0.00000    0.00000
       3373    24 -109.094405 -109.094403    0.000002   3.759    0.00000    0.00000
       3374    23 -109.094405 -109.094403    0.000002   3.759    0.00000    0.00000
       3375    23 -109.094405 -109.094403    0.000002   3.759    0.00000    0.00000
       3376    23 -109.094405 -109.094403    0.000002   3.759    0.00000    0.00000
       3377    24 -109.094405 -109.094403    0.000002   3.759    0.00000    0.00000
       3378    23 -109.094405 -109.094403    0.000002   3.759    0.00000    0.00000
       3379    23 -109.094405 -109.094403    0.000002   3.759    0.00000    0.00000
       3380    23 -109.094405 -109.094403    0.000002   3.759    0.00000    0.00000
       3381    24 -109.094405 -109.094403    0.000002   3.759    0.00000    0.00000
       3382    23 -109.094405 -109.094403    0.000002   3.759    0.00000    0.00000
       3383    23 -109.094405 -109.094403    0.000002   3.759    0.00000    0.00000
       3384    23 -109.094405 -109.094403    0.000002   3.759    0.00000    0.00000
       3385    24 -109.094405 -109.094403    0.000002   3.759    0.00000    0.00000
       3386    23 -109.094405 -109.094403    0.000002   3.759    0.00000    0.00000
       3387    23 -109.094405 -109.094403    0.000002   3.759    0.00000    0.00000
       3388    23 -109.094405 -109.094403    0.000002   3.759    0.00000    0.00000
       3389    24 -109.094405 -109.094403    0.000002   3.759    0.00000    0.00000
       3390    23 -109.094405 -109.094403    0.000002   3.759    0.00000    0.00000
       3391    23 -109.094405 -109.094403    0.000002   3.759    0.00000    0.00000
       3392    24 -109.094405 -109.094403    0.000002   3.759    0.00000    0.00000
       3393    23 -109.094405 -109.094403    0.000002   3.759    0.00000    0.00000
       3394    23 -109.094405 -109.094403    0.000002   3.759    0.00000    0.00000
       3395    24 -109.094405 -109.094403    0.000002   3.759    0.00000    0.00000
       3396    23 -109.094405 -109.094403    0.000002   3.759    0.00000    0.00000
       3397    23 -109.094405 -109.094403    0.000002   3.759    0.00000    0.00000
       3398    24 -109.094405 -109.094403    0.000002   3.759    0.00000    0.00000
       3399    23 -109.094405 -109.094403    0.000002   3.759    0.00000    0.00000
       3400    23 -109.094405 -109.094403    0.000002   3.759    0.00000    0.00000
       3401    24 -109.094405 -109.094403    0.000002   3.759    0.00000    0.00000
       3402    23 -109.094405 -109.094403    0.000002   3.759    0.00000    0.00000
       3403    23 -109.094405 -109.094403    0.000002   3.759    0.00000    0.00000
       3404    23 -109.094405 -109.094403    0.000002   3.759    0.00000    0.00000
       3405    24 -109.094405 -109.094403    0.000002   3.759    0.00000    0.00000
       3406    23 -109.094405 -109.094403    0.000002   3.759    0.00000    0.00000
       3407    23 -109.094405 -109.094403    0.000002   3.759    0.00000    0.00000
       3408    23 -109.094405 -109.094403    0.000002   3.759    0.00000    0.00000
       3409    24 -109.094405 -109.094403    0.000002   3.759    0.00000    0.00000
       3410    23 -109.094405 -109.094403    0.000002   3.759    0.00000    0.00000
       3411    23 -109.094405 -109.094403    0.000002   3.759    0.00000    0.00000
       3412    23 -109.094405 -109.094403    0.000002   3.759    0.00000    0.00000
       3413    24 -109.094405 -109.094403    0.000002   3.759    0.00000    0.00000
       3414    23 -109.094405 -109.094403    0.000002   3.759    0.00000    0.00000
       3415    23 -109.094405 -109.094403    0.000002   3.759    0.00000    0.00000
       3416    24 -109.094405 -109.094403    0.000002   3.759    0.00000    0.00000
       3417    23 -109.094405 -109.094403    0.000002   3.759    0.00000    0.00000
       3418    23 -109.094405 -109.094403    0.000002   3.759    0.00000    0.00000
       3419    24 -109.094405 -109.094403    0.000002   3.759    0.00000    0.00000
       3420    23 -109.094405 -109.094403    0.000002   3.759    0.00000    0.00000
       3421    23 -109.094405 -109.094403    0.000002   3.759    0.00000    0.00000
       3422    24 -109.094405 -109.094403    0.000002   3.759    0.00000    0.00000
       3423    23 -109.094405 -109.094403    0.000002   3.759    0.00000    0.00000
       3424    23 -109.094405 -109.094403    0.000002   3.759    0.00000    0.00000
       3425    24 -109.094405 -109.094403    0.000002   3.759    0.00000    0.00000
       3426    23 -109.094405 -109.094403    0.000002   3.759    0.00000    0.00000
       3427    23 -109.094405 -109.094403    0.000002   3.759    0.00000    0.00000
       3428    24 -109.094405 -109.094403    0.000002   3.759    0.00000    0.00000
       3429    23 -109.094405 -109.094403    0.000002   3.759    0.00000    0.00000
       3430    23 -109.094405 -109.094403    0.000002   3.759    0.00000    0.00000
       3431    24 -109.094405 -109.094403    0.000002   3.759    0.00000    0.00000
       3432    23 -109.094405 -109.094403    0.000002   3.759    0.00000    0.00000
       3433    23 -109.094405 -109.094403    0.000002   3.759    0.00000    0.00000
       3434    24 -109.094405 -109.094403    0.000002   3.759    0.00000    0.00000
       3435    24 -109.094405 -109.094403    0.000002   3.759    0.00000    0.00000
       3436    23 -109.094405 -109.094403    0.000002   3.759    0.00000    0.00000
       3437    24 -109.094405 -109.094403    0.000002   3.759    0.00000    0.00000
       3438    23 -109.094405 -109.094403    0.000002   3.759    0.00000    0.00000
       3439    23 -109.094405 -109.094403    0.000002   3.759    0.00000    0.00000
       3440    24 -109.094405 -109.094403    0.000002   3.759    0.00000    0.00000
       3441    23 -109.094405 -109.094403    0.000002   3.759    0.00000    0.00000
       3442    23 -109.094405 -109.094403    0.000002   3.759    0.00000    0.00000
       3443    24 -109.094405 -109.094403    0.000002   3.759    0.00000    0.00000
       3444    24 -109.094405 -109.094403    0.000002   3.759    0.00000    0.00000
       3445    24 -109.094405 -109.094403    0.000002   3.759    0.00000    0.00000
       3446    24 -109.094405 -109.094403    0.000002   3.759    0.00000    0.00000
       3447    24 -109.094405 -109.094403    0.000002   3.759    0.00000    0.00000
       3448    24 -109.094405 -109.094403    0.000002   3.759    0.00000    0.00000
       3449    24 -109.094405 -109.094403    0.000002   3.759    0.00000    0.00000
       3450    24 -109.094405 -109.094403    0.000002   3.759    0.00000    0.00000
       3451    24 -109.094405 -109.094403    0.000002   3.759    0.00000    0.00000
       3452    24 -109.094405 -109.094403    0.000002   3.759    0.00000    0.00000
       3453    24 -109.094405 -109.094403    0.000002   3.759    0.00000    0.00000
       3454    24 -109.094405 -109.094403    0.000002   3.759    0.00000    0.00000
       3455    24 -109.094405 -109.094403    0.000002   3.759    0.00000    0.00000
       3456    24 -109.094405 -109.094403    0.000002   3.759    0.00000    0.00000
       3457    24 -109.094405 -109.094403    0.000002   3.759    0.00000    0.00000
       3458    24 -109.094405 -109.094403    0.000002   3.759    0.00000    0.00000
       3459    24 -109.094405 -109.094403    0.000002   3.759    0.00000    0.00000
       3460    24 -109.094405 -109.094403    0.000002   3.759    0.00000    0.00000
       3461    24 -109.094405 -109.094403    0.000002   3.759    0.00000    0.00000
       3462    24 -109.094405 -109.094403    0.000002   3.759    0.00000    0.00000
       3463    24 -109.094405 -109.094403    0.000002   3.759    0.00000    0.00000
       3464    24 -109.094405 -109.094403    0.000002   3.759    0.00000    0.00000
       3465    24 -109.094405 -109.094403    0.000002   3.759    0.00000    0.00000
       3466    24 -109.094405 -109.094403    0.000002   3.759    0.00000    0.00000
       3467    24 -109.094405 -109.094403    0.000002   3.759    0.00000    0.00000
       3468    24 -109.094405 -109.094403    0.000002   3.759    0.00000    0.00000
       3469    23 -109.094405 -109.094403    0.000002   3.759    0.00000    0.00000
       3470    24 -109.094405 -109.094403    0.000002   3.759    0.00000    0.00000
       3471    24 -109.094405 -109.094403    0.000002   3.759    0.00000    0.00000
       3472    24 -109.094405 -109.094403    0.000002   3.759    0.00000    0.00000
       3473    23 -109.094405 -109.094403    0.000002   3.759    0.00000    0.00000
       3474    24 -109.094405 -109.094403    0.000002   3.759    0.00000    0.00000
       3475    24 -109.094405 -109.094403    0.000002   3.759    0.00000    0.00000
       3476    24 -109.094405 -109.094403    0.000002   3.759    0.00000    0.00000
       3477    23 -109.094405 -109.094403    0.000002   3.759    0.00000    0.00000
       3478    24 -109.094405 -109.094403    0.000002   3.759    0.00000    0.00000
       3479    24 -109.094405 -109.094403    0.000002   3.759    0.00000    0.00000
       3480    23 -109.094405 -109.094403    0.000002   3.759    0.00000    0.00000
       3481    24 -109.094405 -109.094403    0.000002   3.759    0.00000    0.00000
       3482    24 -109.094405 -109.094403    0.000002   3.759    0.00000    0.00000
       3483    24 -109.094405 -109.094404    0.000002   3.759    0.00000    0.00000
       3484    23 -109.094405 -109.094404    0.000002   3.759    0.00000    0.00000
       3485    24 -109.094405 -109.094404    0.000002   3.759    0.00000    0.00000
       3486    24 -109.094405 -109.094404    0.000002   3.759    0.00000    0.00000
       3487    23 -109.094405 -109.094404    0.000002   3.759    0.00000    0.00000
       3488    24 -109.094405 -109.094404    0.000002   3.759    0.00000    0.00000
       3489    24 -109.094405 -109.094404    0.000002   3.759    0.00000    0.00000
       3490    24 -109.094405 -109.094404    0.000002   3.759    0.00000    0.00000
       3491    23 -109.094405 -109.094404    0.000002   3.759    0.00000    0.00000
       3492    24 -109.094405 -109.094404    0.000002   3.759    0.00000    0.00000
       3493    24 -109.094405 -109.094404    0.000002   3.759    0.00000    0.00000
       3494    23 -109.094405 -109.094404    0.000002   3.759    0.00000    0.00000
       3495    24 -109.094405 -109.094404    0.000002   3.759    0.00000    0.00000
       3496    24 -109.094405 -109.094404    0.000002   3.759    0.00000    0.00000
       3497    23 -109.094405 -109.094404    0.000002   3.759    0.00000    0.00000
       3498    24 -109.094405 -109.094404    0.000002   3.759    0.00000    0.00000
       3499    24 -109.094405 -109.094404    0.000002   3.759    0.00000    0.00000

        ==> Orbital Optimization <==

            Orbital Optimization converged in   1 iterations 
            Total energy change: -3.228678e-09
            Final gradient norm: 4.934394e-05

       3500    23 -109.094405 -109.094835    0.000429  17.951    0.00000    0.00000
       3501    31 -109.094405 -109.094450    0.000045  17.951    0.00000    0.00004
       3502    24 -109.094405 -109.094437    0.000032  17.951    0.00000    0.00003
       3503    26 -109.094405 -109.094426    0.000022  17.951    0.00000    0.00002
       3504    27 -109.094404 -109.094418    0.000014  17.951    0.00000    0.00001
       3505    26 -109.094404 -109.094411    0.000007  17.951    0.00000    0.00001
       3506    26 -109.094404 -109.094405    0.000001  17.951    0.00000    0.00002
       3507    27 -109.094405 -109.094401    0.000004  17.951    0.00000    0.00002
       3508    27 -109.094405 -109.094399    0.000006  17.951    0.00000    0.00002
       3509    26 -109.094405 -109.094400    0.000004  17.951    0.00000    0.00002
       3510    24 -109.094405 -109.094404    0.000001  17.951    0.00000    0.00001
       3511    24 -109.094405 -109.094408    0.000003  17.951    0.00000    0.00001
       3512    26 -109.094405 -109.094412    0.000006  17.951    0.00000    0.00001
       3513    27 -109.094405 -109.094414    0.000009  17.951    0.00000    0.00001
       3514    27 -109.094405 -109.094414    0.000009  17.951    0.00000    0.00001
       3515    24 -109.094405 -109.094413    0.000008  17.951    0.00000    0.00001
       3516    24 -109.094405 -109.094410    0.000005  17.951    0.00000    0.00001
       3517    24 -109.094405 -109.094407    0.000002  17.951    0.00000    0.00001
       3518    24 -109.094405 -109.094403    0.000002  17.951    0.00000    0.00001
       3519    24 -109.094405 -109.094399    0.000006  17.951    0.00000    0.00001
       3520    24 -109.094405 -109.094396    0.000009  17.951    0.00000    0.00001
       3521    24 -109.094405 -109.094393    0.000012  17.951    0.00000    0.00001
       3522    24 -109.094405 -109.094390    0.000015  17.951    0.00000    0.00001
       3523    24 -109.094405 -109.094388    0.000017  17.951    0.00000    0.00001
       3524    24 -109.094405 -109.094387    0.000018  17.951    0.00000    0.00001
       3525    24 -109.094405 -109.094387    0.000018  17.951    0.00000    0.00001
       3526    24 -109.094405 -109.094387    0.000018  17.951    0.00000    0.00001
       3527    24 -109.094405 -109.094387    0.000018  17.951    0.00000    0.00001
       3528    23 -109.094405 -109.094389    0.000016  17.951    0.00000    0.00001
       3529    24 -109.094405 -109.094391    0.000014  17.951    0.00000    0.00001
       3530    23 -109.094405 -109.094393    0.000012  17.951    0.00000    0.00001
       3531    23 -109.094405 -109.094396    0.000010  17.951    0.00000    0.00001
       3532    23 -109.094405 -109.094398    0.000007  17.951    0.00000    0.00001
       3533    24 -109.094405 -109.094401    0.000004  17.951    0.00000    0.00001
       3534    24 -109.094405 -109.094404    0.000002  17.951    0.00000    0.00001
       3535    24 -109.094405 -109.094406    0.000001  17.951    0.00000    0.00001
       3536    24 -109.094405 -109.094409    0.000003  17.951    0.00000    0.00001
       3537    24 -109.094405 -109.094411    0.000006  17.951    0.00000    0.00001
       3538    24 -109.094405 -109.094413    0.000007  17.951    0.00000    0.00001
       3539    24 -109.094405 -109.094414    0.000009  17.951    0.00000    0.00001
       3540    24 -109.094405 -109.094415    0.000010  17.951    0.00000    0.00001
       3541    24 -109.094405 -109.094416    0.000011  17.951    0.00000    0.00001
       3542    24 -109.094405 -109.094416    0.000011  17.951    0.00000    0.00001
       3543    24 -109.094405 -109.094416    0.000011  17.951    0.00000    0.00001
       3544    24 -109.094405 -109.094416    0.000011  17.951    0.00000    0.00001
       3545    24 -109.094405 -109.094415    0.000010  17.951    0.00000    0.00001
       3546    24 -109.094405 -109.094415    0.000010  17.951    0.00000    0.00001
       3547    24 -109.094405 -109.094414    0.000009  17.951    0.00000    0.00001
       3548    24 -109.094405 -109.094412    0.000007  17.951    0.00000    0.00001
       3549    24 -109.094405 -109.094411    0.000006  17.951    0.00000    0.00001
       3550    24 -109.094405 -109.094410    0.000005  17.951    0.00000    0.00001
       3551    24 -109.094405 -109.094408    0.000003  17.951    0.00000    0.00001
       3552    24 -109.094405 -109.094407    0.000002  17.951    0.00000    0.00001
       3553    24 -109.094405 -109.094405    0.000000  17.951    0.00000    0.00001

        ==> Orbital Optimization <==

            Orbital Optimization converged in   1 iterations 
            Total energy change: -9.065957e-10
            Final gradient norm: 3.383084e-05


      v2RDM iterations converged!

      v2RDM total spin [S(S+1)]:            -0.000001
    * v2RDM total energy:           -109.094404909794


 # Natural Orbital Occupation Numbers (alpha) #
 Irrep: 1
      1:  1.0000000
      2:  1.0000000
      3:  0.9905996
      4:  0.0000000
      5:  0.0000000
      6:  0.0000000
      7:  0.0000000

 Irrep: 2
      1:  0.0000000

 Irrep: 3
      1:  0.0326585
      2:  0.0000000
      3:  0.0000000

 Irrep: 4
      1:  0.0326585
      2:  0.0000000
      3:  0.0000000

 Irrep: 5
      1:  0.0000000

 Irrep: 6
      1:  1.0000000
      2:  1.0000000
      3:  0.0094022
      4:  0.0000000
      5:  0.0000000
      6:  0.0000000
      7:  0.0000000

 Irrep: 7
      1:  0.9673406
      2:  0.0000000
      3:  0.0000000

 Irrep: 8
      1:  0.9673406
      2:  0.0000000
      3:  0.0000000


 # Natural Orbital Occupation Numbers (beta) #
 Irrep: 1
      1:  1.0000000
      2:  1.0000000
      3:  0.9905996
      4:  0.0000000
      5:  0.0000000
      6:  0.0000000
      7:  0.0000000

 Irrep: 2
      1:  0.0000000

 Irrep: 3
      1:  0.0326585
      2:  0.0000000
      3:  0.0000000

 Irrep: 4
      1:  0.0326585
      2:  0.0000000
      3:  0.0000000

 Irrep: 5
      1:  0.0000000

 Irrep: 6
      1:  1.0000000
      2:  1.0000000
      3:  0.0094022
      4:  0.0000000
      5:  0.0000000
      6:  0.0000000
      7:  0.0000000

 Irrep: 7
      1:  0.9673406
      2:  0.0000000
      3:  0.0000000

 Irrep: 8
      1:  0.9673406
      2:  0.0000000
      3:  0.0000000


  ==> Iteration count <==

      Microiterations:                   84139
      Macroiterations:                    3554
      Orbital optimization steps:            8

  ==> Wall time <==

      Microiterations:                    9.13 s
      Macroiterations:                    3.88 s
      Orbital optimization:               0.30 s
      Total:                             14.12 s


*** tstop() called on wg-dhcp201d206d180.secure.wireless.fsu. at Fri Jun  3 15:51:49 2016
Module time:
	user time   =      14.22 seconds =       0.24 minutes
	system time =       0.10 seconds =       0.00 minutes
	total time  =         14 seconds =       0.23 minutes
Total time:
	user time   =      14.42 seconds =       0.24 minutes
	system time =       0.11 seconds =       0.00 minutes
	total time  =         15 seconds =       0.25 minutes
	SCF total energy..................................................PASSED
	v2RDM-CASSCF total energy.........................................PASSED

*** Psi4 exiting successfully. Buy a developer a beer!
