    -----------------------------------------------------------------------
          Psi4: An Open-Source Ab Initio Electronic Structure Package
                              Psi4 0.3.34 Driver

                          Git: Rev {master} f3d6bec dirty

    J. M. Turney, A. C. Simmonett, R. M. Parrish, E. G. Hohenstein,
    F. A. Evangelista, J. T. Fermann, B. J. Mintz, L. A. Burns, J. J. Wilke,
    M. L. Abrams, N. J. Russ, M. L. Leininger, C. L. Janssen, E. T. Seidl,
    W. D. Allen, H. F. Schaefer, R. A. King, E. F. Valeev, C. D. Sherrill,
    and T. D. Crawford, WIREs Comput. Mol. Sci. 2, 556-565 (2012)
    (doi: 10.1002/wcms.93)

                         Additional Contributions by
    A. E. DePrince, M. Saitow, U. Bozkaya, A. Yu. Sokolov
    -----------------------------------------------------------------------


    Psi4 started on: Fri Aug 21 15:30:25 2015

    Process ID:  37232
    PSI4DATADIR: /Users/deprince/psi4-install/psi4public/share/psi
    Memory level set to 256.000 MB

  ==> Input File <==

--------------------------------------------------------------------------
#! cc-pvdz N2 (6,6) active space Test DQG

sys.path.insert(0, '../../..')
import v2rdm_casscf

molecule n2 {
0 1
n
n 1 r
}

set {
  basis cc-pvdz
  scf_type pk
  d_convergence      1e-10
  maxiter 500
  frozen_docc  [ 2, 0, 0, 0, 0, 2, 0, 0 ]
  frozen_uocc  [ 4, 1, 2, 2, 1, 4, 2, 2 ]
}
set v2rdm_casscf {
  positivity dqg
  r_convergence  1e-4
  e_convergence  1e-4
  maxiter 20000
}

activate(n2)

n2.r     = 1.1
refscf   = -108.95379624015767 # TEST
refv2rdm = -109.094829037354   # TEST

energy('v2rdm-casscf')

compare_values(refscf, get_variable("SCF TOTAL ENERGY"), 8, "SCF total energy") # TEST
compare_values(refv2rdm, get_variable("CURRENT ENERGY"), 4, "v2RDM-CASSCF total energy") # TEST

--------------------------------------------------------------------------
/Users/deprince/chem/v2rdm_casscf/v2rdm_casscf.so loaded.
Setting geometry variable r to 1.100000

*** tstart() called on Eugenes-MacBook-Pro-2.local
*** at Fri Aug 21 15:30:25 2015


         ---------------------------------------------------------
                                   SCF
            by Justin Turney, Rob Parrish, and Andy Simmonett
                              RHF Reference
                        1 Threads,    256 MiB Core
         ---------------------------------------------------------

  ==> Geometry <==

    Molecular point group: d2h
    Full point group: D_inf_h

    Geometry (in Angstrom), charge = 0, multiplicity = 1:

       Center              X                  Y                   Z       
    ------------   -----------------  -----------------  -----------------
           N          0.000000000000     0.000000000000    -0.550000000000
           N          0.000000000000     0.000000000000     0.550000000000

  Running in d2h symmetry.

  Rotational constants: A = ************  B =      1.98984  C =      1.98984 [cm^-1]
  Rotational constants: A = ************  B =  59653.84444  C =  59653.84444 [MHz]
  Nuclear repulsion =   23.572439291736362

  Charge       = 0
  Multiplicity = 1
  Electrons    = 14
  Nalpha       = 7
  Nbeta        = 7

  ==> Algorithm <==

  SCF Algorithm Type is PK.
  DIIS enabled.
  MOM disabled.
  Fractional occupation disabled.
  Guess Type is CORE.
  Energy threshold   = 1.00e-08
  Density threshold  = 1.00e-10
  Integral threshold = 0.00e+00

  ==> Primary Basis <==

  Basis Set: CC-PVDZ
    Number of shells: 12
    Number of basis function: 28
    Number of Cartesian functions: 30
    Spherical Harmonics?: true
    Max angular momentum: 2

  ==> Pre-Iterations <==

   -------------------------------------------------------
    Irrep   Nso     Nmo     Nalpha   Nbeta   Ndocc  Nsocc
   -------------------------------------------------------
     Ag         7       7       0       0       0       0
     B1g        1       1       0       0       0       0
     B2g        3       3       0       0       0       0
     B3g        3       3       0       0       0       0
     Au         1       1       0       0       0       0
     B1u        7       7       0       0       0       0
     B2u        3       3       0       0       0       0
     B3u        3       3       0       0       0       0
   -------------------------------------------------------
    Total      28      28       7       7       7       0
   -------------------------------------------------------

  Starting with a DF guess...

 OEINTS: Overlap, kinetic, potential, dipole, and quadrupole integrals
         stored in file 35.

  ==> Integral Setup <==

  ==> DFJK: Density-Fitted J/K Matrices <==

    J tasked:                  Yes
    K tasked:                  Yes
    wK tasked:                  No
    OpenMP threads:              1
    Integrals threads:           1
    Memory (MB):               183
    Algorithm:                Core
    Integral Cache:           SAVE
    Schwarz Cutoff:          1E-12
    Fitting Condition:       1E-12

   => Auxiliary Basis Set <=

  Basis Set: 
    Number of shells: 48
    Number of basis function: 140
    Number of Cartesian functions: 162
    Spherical Harmonics?: true
    Max angular momentum: 3

  Minimum eigenvalue in the overlap matrix is 6.1906036234E-03.
  Using Symmetric Orthogonalization.
  SCF Guess: Core (One-Electron) Hamiltonian.

  ==> Iterations <==

                           Total Energy        Delta E     RMS |[F,P]|

    Occupation by irrep:
             Ag   B1g   B2g   B3g    Au   B1u   B2u   B3u 
    DOCC [     3,    0,    0,    0,    0,    2,    1,    1 ]

   @DF-RHF iter   1:   -99.92277299360826   -9.99228e+01   2.54521e-01 
   @DF-RHF iter   2:  -106.57776781959150   -6.65499e+00   1.86596e-01 DIIS
   @DF-RHF iter   3:  -108.86448416243199   -2.28672e+00   3.60110e-02 DIIS
   @DF-RHF iter   4:  -108.95029441476670   -8.58103e-02   5.38078e-03 DIIS
   @DF-RHF iter   5:  -108.95340133461461   -3.10692e-03   9.45212e-04 DIIS
   @DF-RHF iter   6:  -108.95348761700937   -8.62824e-05   8.63375e-05 DIIS
   @DF-RHF iter   7:  -108.95348836594566   -7.48936e-07   1.25814e-05 DIIS
   @DF-RHF iter   8:  -108.95348837812752   -1.21819e-08   1.54695e-06 DIIS
   @DF-RHF iter   9:  -108.95348837831280   -1.85281e-10   1.00773e-07 DIIS
   @DF-RHF iter  10:  -108.95348837831374   -9.37916e-13   8.49991e-09 DIIS
   @DF-RHF iter  11:  -108.95348837831371    2.84217e-14   7.60311e-10 DIIS
   @DF-RHF iter  12:  -108.95348837831368    2.84217e-14   6.48553e-11 DIIS

  DF guess converged.

  ==> Integral Setup <==

 MINTS: Wrapper to libmints.
   by Justin Turney

   Calculation information:
      Number of atoms:                   2
      Number of AO shells:              12
      Number of SO shells:               6
      Number of primitives:             44
      Number of atomic orbitals:        30
      Number of basis functions:        28

      Number of irreps:                  8
      Integral cutoff                 0.00e+00
      Number of functions per irrep: [   7    1    3    3    1    7    3    3 ]

 OEINTS: Overlap, kinetic, potential, dipole, and quadrupole integrals
         stored in file 35.

      Computing two-electron integrals...done
      Computed 10669 non-zero two-electron integrals.
        Stored in file 33.

	Batch   1 pq = [       0,      82] index = [             0,3403]
  ==> DiskJK: Disk-Based J/K Matrices <==

    J tasked:                  Yes
    K tasked:                  Yes
    wK tasked:                  No
    Memory (MB):               183
    Schwarz Cutoff:          1E-12

   @RHF iter  13:  -108.95379599465450   -3.07616e-04   6.35403e-05 DIIS
   @RHF iter  14:  -108.95379623149400   -2.36839e-07   1.18156e-05 DIIS
   @RHF iter  15:  -108.95379623958623   -8.09223e-09   2.56983e-06 DIIS
   @RHF iter  16:  -108.95379624014210   -5.55872e-10   4.05773e-07 DIIS
   @RHF iter  17:  -108.95379624015710   -1.50067e-11   6.12316e-08 DIIS
   @RHF iter  18:  -108.95379624015762   -5.11591e-13   5.47555e-09 DIIS
   @RHF iter  19:  -108.95379624015759    2.84217e-14   7.04008e-10 DIIS
   @RHF iter  20:  -108.95379624015767   -8.52651e-14   2.44415e-11 DIIS

  ==> Post-Iterations <==

    Orbital Energies (a.u.)
    -----------------------

    Doubly Occupied:                                                      

       1Ag   -15.687167     1B1u  -15.683810     2Ag    -1.469497  
       2B1u   -0.774851     3Ag    -0.626026     1B3u   -0.607175  
       1B2u   -0.607175  

    Virtual:                                                              

       1B2g    0.174428     1B3g    0.174428     3B1u    0.593893  
       4Ag     0.820946     2B2u    0.872872     2B3u    0.872872  
       5Ag     0.991969     2B3g    1.050510     2B2g    1.050510  
       4B1u    1.140849     5B1u    1.640840     1B1g    1.758149  
       6Ag     1.758149     3B2u    1.879691     3B3u    1.879691  
       1Au     2.297394     6B1u    2.297394     7Ag     2.871857  
       3B2g    2.993863     3B3g    2.993863     7B1u    3.278667  

    Final Occupation by Irrep:
             Ag   B1g   B2g   B3g    Au   B1u   B2u   B3u 
    DOCC [     3,    0,    0,    0,    0,    2,    1,    1 ]

  Energy converged.

  @RHF Final Energy:  -108.95379624015767

   => Energetics <=

    Nuclear Repulsion Energy =             23.5724392917363623
    One-Electron Energy =                -194.1410686716728264
    Two-Electron Energy =                  61.6148331397787956
    DFT Exchange-Correlation Energy =       0.0000000000000000
    Empirical Dispersion Energy =           0.0000000000000000
    PCM Polarization Energy =               0.0000000000000000
    EFP Energy =                            0.0000000000000000
    Total Energy =                       -108.9537962401576578

    Alert: EFP and PCM quantities not currently incorporated into SCF psivars.

Properties will be evaluated at   0.000000,   0.000000,   0.000000 Bohr
  ==> Properties <==


Properties computed using the SCF density matrix

  Nuclear Dipole Moment: (a.u.)
     X:     0.0000      Y:     0.0000      Z:     0.0000

  Electronic Dipole Moment: (a.u.)
     X:     0.0000      Y:     0.0000      Z:     0.0000

  Dipole Moment: (a.u.)
     X:     0.0000      Y:     0.0000      Z:     0.0000     Total:     0.0000

  Dipole Moment: (Debye)
     X:     0.0000      Y:     0.0000      Z:     0.0000     Total:     0.0000


  Saving occupied orbitals to File 180.

*** tstop() called on Eugenes-MacBook-Pro-2.local at Fri Aug 21 15:30:25 2015
Module time:
	user time   =       0.32 seconds =       0.01 minutes
	system time =       0.02 seconds =       0.00 minutes
	total time  =          0 seconds =       0.00 minutes
Total time:
	user time   =       0.32 seconds =       0.01 minutes
	system time =       0.02 seconds =       0.00 minutes
	total time  =          0 seconds =       0.00 minutes
Reading options from the V2RDM_CASSCF block
Calling plugin v2rdm_casscf.so.

*** tstart() called on Eugenes-MacBook-Pro-2.local
*** at Fri Aug 21 15:30:25 2015



        *******************************************************
        *                                                     *
        *    v-2RDM                                           *
        *                                                     *
        *    Ground-state variational 2-RDM optimization      *
        *    using a boundary-point semidefinite solver       *
        *                                                     *
        *    Eugene DePrince                                  *
        *                                                     *
        *******************************************************

  ==> Input parameters <==

        Freeze core orbitals?                 yes
        Number of frozen core orbitals:         4
        Number of active occupied orbitals:     3
        Number of active virtual orbitals:      3
        Number of frozen virtual orbitals:     18
        r_convergence:                  1.000e-04
        e_convergence:                  1.000e-04
        cg_convergence:                 1.000e-05
        maxiter:                            20000
        cg_maxiter:                         10000

  ==> Memory requirements <==

        D2:                          0.00 mb
        Q2:                          0.00 mb
        G2:                          0.01 mb

        Total number of variables:           1500
        Total number of constraints:         1282
        Total memory requirements:        4.87 mb

    ==> Transform two-electron integrals <==

	Presorting SO-basis two-electron integrals.
	Sorting File: SO Ints (nn|nn) nbuckets = 1
	Transforming the one-electron integrals and constructing Fock matrices
	Starting first half-transformation.
	Sorting half-transformed integrals.
	First half integral transformation complete.
	Starting second half-transformation.
	Two-electron integral transformation complete.

        Time for integral transformation:     0.01 s


        Read integrals......done.


    reference energy:        -108.953796240158
    frozen core energy:      -121.129833723329
    initial 2-RDM energy:    -103.797703714035

      oiter iiter        E(p)        E(d)      E gap)      mu     eps(p)     eps(d)
          0    71 -110.086322  137.500813  247.587135   1.000   56.42003   72.35907
          1    41  -95.776223 -276.013993  180.237770   1.000    9.09372   30.50934
          2    42 -117.876371 -119.397131    1.520759   1.000   13.53427    6.22296
          3    42 -105.903818 -110.945225    5.041407   1.000    6.75581    3.57830
          4    42 -109.867610 -109.714193    0.153417   1.000    3.55604    2.84724
          5    42 -106.030738 -107.276170    1.245432   1.000    1.77105    2.09067
          6    39 -108.242099 -106.461031    1.781068   1.000    1.17168    1.53203
          7    35 -107.200265 -106.245264    0.955001   1.000    0.65271    1.33266
          8    38 -108.056487 -107.640270    0.416216   1.000    0.39230    0.80102
          9    38 -107.733932 -106.940602    0.793330   1.000    0.32553    0.53975
         10    35 -108.075262 -107.572432    0.502830   1.000    0.28472    0.38557
         11    34 -107.971790 -107.459936    0.511854   1.000    0.26382    0.32043
         12    33 -108.112722 -107.737797    0.374925   1.000    0.17341    0.29081
         13    33 -108.091916 -107.661495    0.430421   1.000    0.12728    0.26993
         14    38 -108.170296 -107.677615    0.492681   1.000    0.12136    0.24775
         15    38 -108.190690 -107.606837    0.583853   1.000    0.16158    0.23271
         16    35 -108.249226 -107.639325    0.609901   1.000    0.19291    0.22081
         17    35 -108.282205 -107.712606    0.569599   1.000    0.19450    0.21379
         18    34 -108.331488 -107.814125    0.517363   1.000    0.16533    0.21084
         19    28 -108.370141 -107.860145    0.509997   1.000    0.12641    0.21025
         20    33 -108.411966 -107.879509    0.532457   1.000    0.10853    0.20672
         21    38 -108.442633 -107.853765    0.588867   1.000    0.11414    0.19966
         22    38 -108.473228 -107.846065    0.627163   1.000    0.12863    0.18996
         23    35 -108.503378 -107.864643    0.638735   1.000    0.12636    0.18318
         24    37 -108.520101 -107.992070    0.528031   1.000    0.11589    0.16504
         25    37 -108.531198 -108.103954    0.427244   1.000    0.12125    0.14954
         26    38 -108.540609 -108.227889    0.312720   1.000    0.11745    0.13495
         27    38 -108.557836 -108.340274    0.217562   1.000    0.08660    0.13029
         28    38 -108.573953 -108.389732    0.184221   1.000    0.06702    0.12656
         29    38 -108.598338 -108.366629    0.231709   1.000    0.06987    0.12153
         30    35 -108.607985 -108.324989    0.282997   1.000    0.06744    0.11723
         31    32 -108.617346 -108.299831    0.317515   1.000    0.05472    0.11445
         32    35 -108.628240 -108.301064    0.327176   1.000    0.04584    0.11161
         33    40 -108.638332 -108.279388    0.358944   1.000    0.04197    0.10931
         34    40 -108.649176 -108.292584    0.356592   1.000    0.04324    0.10739
         35    40 -108.659602 -108.297470    0.362132   1.000    0.04144    0.10643
         36    40 -108.669172 -108.310050    0.359121   1.000    0.03447    0.10646
         37    38 -108.679524 -108.310289    0.369236   1.000    0.02728    0.10657
         38    39 -108.688778 -108.308030    0.380748   1.000    0.02488    0.10621
         39    38 -108.698826 -108.300918    0.397908   1.000    0.02505    0.10545
         40    36 -108.704205 -108.301179    0.403027   1.000    0.02932    0.10420
         41    34 -108.711986 -108.309003    0.402983   1.000    0.03590    0.10266
         42    34 -108.721946 -108.324002    0.397944   1.000    0.03650    0.10199
         43    37 -108.733652 -108.340602    0.393050   1.000    0.03138    0.10129
         44    35 -108.745950 -108.345933    0.400018   1.000    0.02704    0.10068
         45    32 -108.757910 -108.348828    0.409082   1.000    0.02596    0.10005
         46    32 -108.769110 -108.348075    0.421036   1.000    0.02748    0.09949
         47    32 -108.779449 -108.347604    0.431845   1.000    0.02888    0.09885
         48    32 -108.788988 -108.349123    0.439865   1.000    0.02921    0.09812
         49    32 -108.798239 -108.349263    0.448976   1.000    0.02825    0.09758
         50    32 -108.807124 -108.349761    0.457363   1.000    0.02655    0.09723
         51    35 -108.815988 -108.352547    0.463441   1.000    0.02474    0.09705
         52    37 -108.824645 -108.359738    0.464908   1.000    0.02243    0.09700
         53    34 -108.833736 -108.364796    0.468940   1.000    0.01941    0.09712
         54    38 -108.842319 -108.367779    0.474540   1.000    0.01674    0.09710
         55    40 -108.851258 -108.367907    0.483350   1.000    0.01589    0.09678
         56    41 -108.859779 -108.366996    0.492783   1.000    0.01649    0.09630
         57    40 -108.868258 -108.365183    0.503075   1.000    0.01711    0.09590
         58    38 -108.876668 -108.365305    0.511363   1.000    0.01717    0.09563
         59    35 -108.885198 -108.366692    0.518506   1.000    0.01665    0.09539
         60    32 -108.893495 -108.369421    0.524074   1.000    0.01833    0.09460
         61    38 -108.902447 -108.382396    0.520051   1.000    0.02217    0.09328
         62    38 -108.911225 -108.393950    0.517274   1.000    0.02695    0.09211
         63    35 -108.920944 -108.404048    0.516896   1.000    0.03264    0.09047
         64    35 -108.930346 -108.418539    0.511807   1.000    0.03571    0.08907
         65    34 -108.935958 -108.438131    0.497826   1.000    0.03443    0.08776
         66    38 -108.939858 -108.463348    0.476509   1.000    0.03619    0.08472
         67    36 -108.942354 -108.509962    0.432391   1.000    0.04132    0.08063
         68    37 -108.948198 -108.560286    0.387912   1.000    0.04563    0.07741
         69    32 -108.950932 -108.602726    0.348207   1.000    0.04960    0.07358
         70    35 -108.954270 -108.652831    0.301440   1.000    0.05245    0.06951
         71    35 -108.957281 -108.704205    0.253076   1.000    0.04995    0.06731
         72    38 -108.961383 -108.746294    0.215089   1.000    0.04172    0.06600
         73    35 -108.965192 -108.756970    0.208222   1.000    0.03394    0.06532
         74    40 -108.969089 -108.758493    0.210596   1.000    0.02765    0.06460
         75    37 -108.972149 -108.746280    0.225869   1.000    0.02330    0.06317
         76    41 -108.974794 -108.735651    0.239143   1.000    0.02042    0.06159
         77    40 -108.978020 -108.734548    0.243471   1.000    0.01857    0.05943
         78    38 -108.980472 -108.727781    0.252691   1.000    0.01782    0.05769
         79    38 -108.983043 -108.727418    0.255625   1.000    0.01747    0.05618
         80    34 -108.985811 -108.728679    0.257132   1.000    0.01687    0.05486
         81    34 -108.988726 -108.731891    0.256835   1.000    0.01532    0.05399
         82    37 -108.992207 -108.736044    0.256163   1.000    0.01285    0.05344
         83    37 -108.995750 -108.739621    0.256129   1.000    0.01091    0.05294
         84    40 -108.999430 -108.742003    0.257427   1.000    0.00981    0.05236
         85    40 -109.002719 -108.745582    0.257137   1.000    0.00933    0.05159
         86    40 -109.005764 -108.752680    0.253084   1.000    0.00964    0.05062
         87    41 -109.008459 -108.760846    0.247613   1.000    0.01016    0.04960
         88    41 -109.010458 -108.770826    0.239631   1.000    0.01085    0.04855
         89    41 -109.012694 -108.782067    0.230627   1.000    0.01160    0.04740
         90    41 -109.014705 -108.795435    0.219270   1.000    0.01239    0.04620
         91    37 -109.016963 -108.809376    0.207587   1.000    0.01309    0.04501
         92    34 -109.019212 -108.823407    0.195805   1.000    0.01383    0.04382
         93    34 -109.021392 -108.836312    0.185079   1.000    0.01466    0.04258
         94    32 -109.023248 -108.847167    0.176080   1.000    0.01563    0.04124
         95    34 -109.025235 -108.856608    0.168627   1.000    0.01682    0.03977
         96    33 -109.026714 -108.863931    0.162784   1.000    0.01800    0.03820
         97    33 -109.028032 -108.870751    0.157282   1.000    0.01917    0.03654
         98    33 -109.029294 -108.876712    0.152582   1.000    0.02032    0.03480
         99    34 -109.030320 -108.882628    0.147692   1.000    0.02139    0.03300
        100    33 -109.031505 -108.889158    0.142347   1.000    0.02241    0.03111
        101    34 -109.032704 -108.896930    0.135774   1.000    0.02333    0.02919
        102    33 -109.033803 -108.905021    0.128782   1.000    0.02419    0.02729
        103    33 -109.034709 -108.912520    0.122188   1.000    0.02498    0.02545
        104    34 -109.035438 -108.920377    0.115060   1.000    0.02551    0.02374
        105    33 -109.036145 -108.928021    0.108124   1.000    0.02582    0.02224
        106    33 -109.036695 -108.935256    0.101439   1.000    0.02591    0.02095
        107    34 -109.036970 -108.941739    0.095232   1.000    0.02571    0.01988
        108    35 -109.037078 -108.947838    0.089240   1.000    0.02527    0.01900
        109    35 -109.036975 -108.953640    0.083335   1.000    0.02457    0.01826
        110    34 -109.036651 -108.958893    0.077758   1.000    0.02342    0.01761
        111    33 -109.034186 -108.963650    0.070536   1.000    0.01703    0.01719
        112    33 -109.032392 -108.971121    0.061271   1.000    0.01462    0.01639
        113    35 -109.031802 -108.979174    0.052628   1.000    0.01318    0.01560
        114    32 -109.030175 -108.985265    0.044910   1.000    0.01188    0.01468
        115    31 -109.029415 -108.990702    0.038713   1.000    0.01088    0.01365
        116    32 -109.028403 -108.994171    0.034232   1.000    0.01021    0.01266
        117    32 -109.027949 -108.998496    0.029453   1.000    0.00939    0.01163
        118    30 -109.027575 -108.999554    0.028022   1.000    0.00854    0.01082
        119    32 -109.027411 -109.001650    0.025761   1.000    0.00769    0.00996
        120    33 -109.027283 -109.001643    0.025640   1.000    0.00704    0.00917
        121    32 -109.027138 -109.001199    0.025939   1.000    0.00654    0.00852
        122    30 -109.027039 -109.000782    0.026256   1.000    0.00613    0.00792
        123    28 -109.026948 -109.000544    0.026404   1.000    0.00585    0.00739
        124    37 -109.026913 -109.001634    0.025279   1.000    0.00565    0.00679
        125    31 -109.026884 -109.002169    0.024715   1.000    0.00559    0.00617
        126    38 -109.026903 -109.003860    0.023043   1.000    0.00557    0.00551
        127    37 -109.026909 -109.005214    0.021695   1.000    0.00555    0.00489
        128    38 -109.026954 -109.006944    0.020011   1.000    0.00550    0.00439
        129    38 -109.026979 -109.008263    0.018716   1.000    0.00540    0.00407
        130    38 -109.026999 -109.009614    0.017385   1.000    0.00527    0.00390
        131    38 -109.026992 -109.010684    0.016308   1.000    0.00513    0.00382
        132    38 -109.026973 -109.011665    0.015307   1.000    0.00502    0.00375
        133    38 -109.026935 -109.012400    0.014535   1.000    0.00493    0.00364
        134    35 -109.026892 -109.013032    0.013860   1.000    0.00486    0.00353
        135    33 -109.026852 -109.013934    0.012917   1.000    0.00481    0.00327
        136    33 -109.026781 -109.014020    0.012761   1.000    0.00473    0.00306
        137    35 -109.026725 -109.014554    0.012171   1.000    0.00467    0.00286
        138    38 -109.026701 -109.015048    0.011653   1.000    0.00459    0.00270
        139    33 -109.026680 -109.015313    0.011367   1.000    0.00430    0.00295
        140    33 -109.026748 -109.017448    0.009300   1.000    0.00405    0.00287
        141    35 -109.026645 -109.018535    0.008110   1.000    0.00385    0.00278
        142    37 -109.026496 -109.019456    0.007040   1.000    0.00375    0.00282
        143    37 -109.026306 -109.020965    0.005341   1.000    0.00381    0.00267
        144    38 -109.026139 -109.022384    0.003754   1.000    0.00403    0.00241
        145    40 -109.025935 -109.023612    0.002324   1.000    0.00426    0.00213
        146    40 -109.025771 -109.024739    0.001032   1.000    0.00436    0.00192
        147    40 -109.025630 -109.025573    0.000057   1.000    0.00431    0.00186
        148    41 -109.025551 -109.026157    0.000606   1.000    0.00415    0.00192
        149    40 -109.025493 -109.026502    0.001009   1.000    0.00396    0.00202
        150    37 -109.025491 -109.026653    0.001163   1.000    0.00374    0.00211
        151    37 -109.025503 -109.026685    0.001182   1.000    0.00353    0.00218
        152    37 -109.025541 -109.026698    0.001157   1.000    0.00333    0.00223
        153    37 -109.025586 -109.026715    0.001129   1.000    0.00314    0.00225
        154    40 -109.025640 -109.026798    0.001158   1.000    0.00297    0.00224
        155    38 -109.025679 -109.027063    0.001384   1.000    0.00287    0.00215
        156    40 -109.025717 -109.027728    0.002011   1.000    0.00281    0.00194
        157    41 -109.025700 -109.028312    0.002612   1.000    0.00277    0.00176
        158    42 -109.025643 -109.028795    0.003152   1.000    0.00269    0.00163
        159    41 -109.025545 -109.029005    0.003460   1.000    0.00262    0.00153
        160    41 -109.025394 -109.028851    0.003457   1.000    0.00264    0.00137
        161    40 -109.025243 -109.028638    0.003395   1.000    0.00272    0.00115
        162    41 -109.025115 -109.028353    0.003239   1.000    0.00281    0.00093
        163    41 -109.025027 -109.028076    0.003049   1.000    0.00282    0.00086
        164    45 -109.025021 -109.027928    0.002907   1.000    0.00274    0.00082
        165    42 -109.025048 -109.027476    0.002427   1.000    0.00264    0.00083
        166    42 -109.025074 -109.026851    0.001777   1.000    0.00255    0.00084
        167    42 -109.025107 -109.025900    0.000792   1.000    0.00249    0.00084
        168    41 -109.025137 -109.024785    0.000352   1.000    0.00242    0.00085
        169    41 -109.025168 -109.023587    0.001580   1.000    0.00235    0.00088
        170    41 -109.025202 -109.022450    0.002753   1.000    0.00226    0.00093
        171    41 -109.025241 -109.021468    0.003772   1.000    0.00218    0.00098
        172    40 -109.025290 -109.020697    0.004593   1.000    0.00214    0.00100
        173    40 -109.025345 -109.020183    0.005162   1.000    0.00213    0.00100
        174    40 -109.025418 -109.019913    0.005505   1.000    0.00214    0.00098
        175    41 -109.025498 -109.019901    0.005597   1.000    0.00216    0.00095
        176    41 -109.025591 -109.020110    0.005481   1.000    0.00218    0.00091
        177    42 -109.025683 -109.020525    0.005158   1.000    0.00218    0.00087
        178    41 -109.025766 -109.021090    0.004676   1.000    0.00217    0.00081
        179    42 -109.025835 -109.021778    0.004057   1.000    0.00217    0.00076
        180    41 -109.025878 -109.022532    0.003346   1.000    0.00217    0.00070
        181    43 -109.025898 -109.023320    0.002579   1.000    0.00216    0.00066
        182    43 -109.025893 -109.024096    0.001797   1.000    0.00215    0.00064
        183    43 -109.025867 -109.024833    0.001034   1.000    0.00213    0.00065
        184    43 -109.025825 -109.025495    0.000330   1.000    0.00212    0.00066
        185    43 -109.025739 -109.026061    0.000323   1.000    0.00209    0.00069
        186    41 -109.025673 -109.026567    0.000894   1.000    0.00202    0.00080
        187    42 -109.025657 -109.027146    0.001489   1.000    0.00193    0.00079
        188    42 -109.025626 -109.027374    0.001747   1.000    0.00187    0.00078
        189    40 -109.025600 -109.027510    0.001909   1.000    0.00185    0.00076
        190    41 -109.025558 -109.027373    0.001815   1.000    0.00185    0.00075
        191    41 -109.025509 -109.027122    0.001613   1.000    0.00185    0.00075
        192    41 -109.025456 -109.026779    0.001323   1.000    0.00184    0.00074
        193    41 -109.025409 -109.026473    0.001064   1.000    0.00183    0.00072
        194    41 -109.025370 -109.026239    0.000869   1.000    0.00183    0.00070
        195    42 -109.025343 -109.026105    0.000762   1.000    0.00183    0.00068
        196    42 -109.025327 -109.026035    0.000708   1.000    0.00184    0.00065
        197    42 -109.025317 -109.025992    0.000675   1.000    0.00184    0.00063
        198    42 -109.025313 -109.025924    0.000612   1.000    0.00184    0.00061
        199    42 -109.025311 -109.025803    0.000492   1.000    0.00183    0.00060

        ==> Orbital Optimization <==

            Orbital Optimization converged in  18 iterations 
            Total energy change: -3.792556e-02
            Final gradient norm: 2.235265e-05

        200    41 -109.063238 -108.987115    0.076122   3.067    0.00182    0.00059
        201    82 -109.086353 -108.587574    0.498779   3.067    0.04699    0.20636
        202    42 -109.095959 -108.868396    0.227563   3.067    0.05590    0.12501
        203    37 -109.098561 -109.113646    0.015086   3.067    0.04106    0.10766
        204    41 -109.094998 -109.161514    0.066516   3.067    0.02881    0.10873
        205    41 -109.085906 -109.126799    0.040894   3.067    0.02430    0.10145
        206    37 -109.077346 -109.118424    0.041077   3.067    0.02302    0.08666
        207    37 -109.071413 -109.173578    0.102165   3.067    0.02492    0.06865
        208    42 -109.074562 -109.252118    0.177556   3.067    0.01864    0.05739
        209    38 -109.081134 -109.315839    0.234705   3.067    0.01308    0.05347
        210    42 -109.078669 -109.346957    0.268288   3.067    0.01030    0.05166
        211    42 -109.082463 -109.320071    0.237608   3.067    0.01082    0.04793
        212    41 -109.081668 -109.278466    0.196798   3.067    0.01215    0.04358
        213    42 -109.082043 -109.242994    0.160951   3.067    0.01236    0.03858
        214    42 -109.080064 -109.198793    0.118729   3.067    0.01055    0.03503
        215    42 -109.078546 -109.169205    0.090659   3.067    0.00979    0.03281
        216    41 -109.077171 -109.157200    0.080029   3.067    0.01008    0.02933
        217    42 -109.076476 -109.144369    0.067893   3.067    0.01069    0.02698
        218    37 -109.076522 -109.145290    0.068768   3.067    0.01060    0.02420
        219    42 -109.077694 -109.142934    0.065240   3.067    0.00988    0.02255
        220    42 -109.079277 -109.136347    0.057070   3.067    0.00980    0.02148
        221    39 -109.081104 -109.125399    0.044294   3.067    0.01093    0.02044
        222    35 -109.082620 -109.109265    0.026645   3.067    0.01241    0.01926
        223    35 -109.083477 -109.092840    0.009363   3.067    0.01319    0.01849
        224    36 -109.083255 -109.084568    0.001313   3.067    0.01318    0.01630
        225    40 -109.082301 -109.074875    0.007426   3.067    0.01243    0.01445
        226    33 -109.082487 -109.072125    0.010362   3.067    0.01193    0.01343
        227    37 -109.082376 -109.065590    0.016786   3.067    0.01122    0.01363
        228    36 -109.082919 -109.061804    0.021115   3.067    0.01102    0.01375
        229    35 -109.083409 -109.059695    0.023714   3.067    0.01114    0.01290
        230    39 -109.083956 -109.059781    0.024175   3.067    0.01137    0.01152
        231    37 -109.084424 -109.060281    0.024143   3.067    0.01140    0.01070
        232    39 -109.084776 -109.063808    0.020968   3.067    0.01129    0.01058
        233    35 -109.085090 -109.068748    0.016342   3.067    0.01123    0.01058
        234    41 -109.085082 -109.074894    0.010187   3.067    0.01089    0.01084
        235    35 -109.085117 -109.083997    0.001120   3.067    0.01103    0.01066
        236    35 -109.083246 -109.091268    0.008021   3.067    0.00844    0.01152
        237    40 -109.082683 -109.097838    0.015155   3.067    0.00879    0.00994
        238    39 -109.082475 -109.099836    0.017361   3.067    0.00899    0.00888
        239    39 -109.082220 -109.098004    0.015784   3.067    0.00924    0.00771
        240    39 -109.081925 -109.093541    0.011615   3.067    0.00893    0.00693
        241    35 -109.081350 -109.090694    0.009345   3.067    0.00817    0.00668
        242    36 -109.080858 -109.090637    0.009779   3.067    0.00737    0.00670
        243    39 -109.079943 -109.092921    0.012978   3.067    0.00643    0.00704
        244    35 -109.080052 -109.096599    0.016547   3.067    0.00601    0.00674
        245    36 -109.079848 -109.098895    0.019047   3.067    0.00578    0.00661
        246    35 -109.079484 -109.100872    0.021388   3.067    0.00536    0.00659
        247    38 -109.079325 -109.103294    0.023970   3.067    0.00521    0.00629
        248    35 -109.078906 -109.103994    0.025088   3.067    0.00506    0.00618
        249    35 -109.078743 -109.104758    0.026015   3.067    0.00494    0.00594
        250    34 -109.078446 -109.103637    0.025191   3.067    0.00486    0.00575
        251    33 -109.078245 -109.102002    0.023758   3.067    0.00477    0.00557
        252    35 -109.078030 -109.099451    0.021421   3.067    0.00470    0.00536
        253    37 -109.077899 -109.096587    0.018688   3.067    0.00463    0.00514
        254    37 -109.077811 -109.093519    0.015708   3.067    0.00458    0.00494
        255    35 -109.077798 -109.090418    0.012620   3.067    0.00452    0.00475
        256    35 -109.077823 -109.087413    0.009590   3.067    0.00448    0.00458
        257    34 -109.077892 -109.084731    0.006839   3.067    0.00437    0.00488
        258    35 -109.078003 -109.084951    0.006948   3.067    0.00426    0.00453
        259    34 -109.078123 -109.084955    0.006832   3.067    0.00419    0.00433
        260    35 -109.078221 -109.084984    0.006764   3.067    0.00418    0.00423
        261    35 -109.078301 -109.085516    0.007215   3.067    0.00419    0.00431
        262    35 -109.078334 -109.086505    0.008171   3.067    0.00417    0.00503
        263    36 -109.078317 -109.089572    0.011255   3.067    0.00414    0.00491
        264    35 -109.078264 -109.088201    0.009938   3.067    0.00406    0.00494
        265    41 -109.078149 -109.088267    0.010118   3.067    0.00394    0.00493
        266    39 -109.078044 -109.086724    0.008680   3.067    0.00381    0.00482
        267    39 -109.077947 -109.086004    0.008058   3.067    0.00371    0.00456
        268    39 -109.077461 -109.084335    0.006873   3.067    0.00300    0.00443
        269    38 -109.077576 -109.084464    0.006888   3.067    0.00316    0.00403
        270    39 -109.077401 -109.082937    0.005536   3.067    0.00293    0.00415
        271    34 -109.077505 -109.084425    0.006920   3.067    0.00306    0.00377
        272    39 -109.077448 -109.083865    0.006417   3.067    0.00304    0.00348
        273    40 -109.077429 -109.083146    0.005717   3.067    0.00309    0.00319
        274    41 -109.077199 -109.081945    0.004746   3.067    0.00262    0.00310
        275    42 -109.077045 -109.081451    0.004406   3.067    0.00219    0.00293
        276    42 -109.076982 -109.081386    0.004404   3.067    0.00198    0.00285
        277    42 -109.076988 -109.082396    0.005409   3.067    0.00191    0.00271
        278    42 -109.076912 -109.082441    0.005529   3.067    0.00185    0.00267
        279    42 -109.076867 -109.082857    0.005989   3.067    0.00189    0.00266
        280    42 -109.076804 -109.082807    0.006003   3.067    0.00195    0.00264
        281    42 -109.076764 -109.082753    0.005989   3.067    0.00203    0.00260
        282    42 -109.076730 -109.082515    0.005785   3.067    0.00210    0.00255
        283    38 -109.076719 -109.082345    0.005626   3.067    0.00215    0.00248
        284    38 -109.076717 -109.082208    0.005490   3.067    0.00217    0.00240
        285    35 -109.076733 -109.082295    0.005562   3.067    0.00217    0.00233
        286    35 -109.076750 -109.082480    0.005730   3.067    0.00214    0.00226
        287    35 -109.076766 -109.082772    0.006006   3.067    0.00209    0.00220
        288    35 -109.076773 -109.083117    0.006344   3.067    0.00202    0.00216
        289    38 -109.076765 -109.083459    0.006694   3.067    0.00194    0.00212
        290    39 -109.076750 -109.083776    0.007026   3.067    0.00186    0.00209
        291    39 -109.076701 -109.084007    0.007305   3.067    0.00174    0.00207
        292    42 -109.076209 -109.084164    0.007955   3.067    0.00145    0.00252
        293    42 -109.076364 -109.085746    0.009382   3.067    0.00133    0.00228
        294    42 -109.076129 -109.085029    0.008899   3.067    0.00134    0.00220
        295    42 -109.076124 -109.084745    0.008622   3.067    0.00129    0.00217
        296    40 -109.075999 -109.083462    0.007463   3.067    0.00131    0.00213
        297    42 -109.075973 -109.082304    0.006331   3.067    0.00132    0.00207
        298    42 -109.075925 -109.080766    0.004840   3.067    0.00134    0.00201
        299    42 -109.075928 -109.079418    0.003490   3.067    0.00136    0.00196
        300    40 -109.075939 -109.078055    0.002117   3.067    0.00139    0.00191
        301    40 -109.075973 -109.076970    0.000997   3.067    0.00141    0.00188
        302    40 -109.076015 -109.076032    0.000017   3.067    0.00143    0.00185
        303    40 -109.076067 -109.075384    0.000684   3.067    0.00144    0.00183
        304    40 -109.076120 -109.074983    0.001137   3.067    0.00145    0.00180
        305    40 -109.076173 -109.074874    0.001299   3.067    0.00145    0.00176
        306    42 -109.076222 -109.075040    0.001183   3.067    0.00145    0.00172
        307    42 -109.076268 -109.075458    0.000810   3.067    0.00145    0.00166
        308    42 -109.076307 -109.076099    0.000208   3.067    0.00144    0.00160
        309    42 -109.076339 -109.076903    0.000564   3.067    0.00143    0.00156
        310    42 -109.076363 -109.077809    0.001446   3.067    0.00142    0.00153
        311    42 -109.076378 -109.078746    0.002368   3.067    0.00140    0.00152
        312    42 -109.076383 -109.079647    0.003263   3.067    0.00138    0.00153
        313    42 -109.076378 -109.080450    0.004072   3.067    0.00136    0.00155
        314    40 -109.076364 -109.081116    0.004751   3.067    0.00134    0.00158
        315    40 -109.076340 -109.081584    0.005243   3.067    0.00132    0.00160
        316    40 -109.076311 -109.081874    0.005563   3.067    0.00130    0.00162
        317    40 -109.076277 -109.081954    0.005678   3.067    0.00129    0.00163
        318    40 -109.076241 -109.081848    0.005607   3.067    0.00127    0.00163
        319    40 -109.076207 -109.081571    0.005363   3.067    0.00125    0.00163
        320    40 -109.076178 -109.081157    0.004979   3.067    0.00123    0.00163
        321    42 -109.076154 -109.080640    0.004487   3.067    0.00121    0.00162
        322    40 -109.076141 -109.080062    0.003922   3.067    0.00118    0.00162
        323    42 -109.076132 -109.079470    0.003338   3.067    0.00116    0.00161
        324    40 -109.076138 -109.078889    0.002751   3.067    0.00113    0.00161
        325    40 -109.076147 -109.078369    0.002222   3.067    0.00111    0.00160
        326    40 -109.076166 -109.077920    0.001754   3.067    0.00108    0.00159
        327    40 -109.076188 -109.077565    0.001377   3.067    0.00105    0.00158
        328    40 -109.076212 -109.077306    0.001094   3.067    0.00102    0.00157
        329    40 -109.076237 -109.077142    0.000904   3.067    0.00099    0.00157
        330    36 -109.076261 -109.077067    0.000806   3.067    0.00097    0.00156
        331    40 -109.076281 -109.077022    0.000741   3.067    0.00094    0.00156
        332    36 -109.076298 -109.077070    0.000772   3.067    0.00092    0.00156
        333    40 -109.076310 -109.077083    0.000773   3.067    0.00090    0.00156
        334    35 -109.076318 -109.077143    0.000825   3.067    0.00088    0.00156
        335    36 -109.076323 -109.077146    0.000823   3.067    0.00086    0.00156
        336    36 -109.076324 -109.077135    0.000811   3.067    0.00085    0.00156
        337    36 -109.076325 -109.077086    0.000762   3.067    0.00084    0.00155
        338    36 -109.076316 -109.077005    0.000689   3.067    0.00083    0.00154
        339    36 -109.076308 -109.076923    0.000615   3.067    0.00082    0.00153
        340    36 -109.076304 -109.076826    0.000522   3.067    0.00081    0.00152
        341    34 -109.076305 -109.076706    0.000401   3.067    0.00081    0.00151
        342    35 -109.076307 -109.076572    0.000265   3.067    0.00080    0.00150
        343    35 -109.076314 -109.076450    0.000136   3.067    0.00079    0.00150
        344    35 -109.076319 -109.076348    0.000029   3.067    0.00078    0.00149
        345    36 -109.076328 -109.076286    0.000041   3.067    0.00078    0.00148
        346    40 -109.076335 -109.076273    0.000062   3.067    0.00077    0.00147
        347    36 -109.076339 -109.076289    0.000050   3.067    0.00076    0.00146
        348    42 -109.076347 -109.076378    0.000031   3.067    0.00075    0.00145
        349    40 -109.076350 -109.076448    0.000098   3.067    0.00074    0.00144
        350    42 -109.076355 -109.076603    0.000248   3.067    0.00073    0.00143
        351    42 -109.076357 -109.076706    0.000349   3.067    0.00072    0.00142
        352    42 -109.076359 -109.076850    0.000491   3.067    0.00071    0.00141
        353    42 -109.076359 -109.076954    0.000595   3.067    0.00070    0.00140
        354    42 -109.076358 -109.077054    0.000696   3.067    0.00069    0.00138
        355    42 -109.076355 -109.077114    0.000760   3.067    0.00068    0.00137
        356    42 -109.076350 -109.077149    0.000799   3.067    0.00067    0.00135
        357    42 -109.076345 -109.077144    0.000799   3.067    0.00066    0.00133
        358    42 -109.076340 -109.077105    0.000766   3.067    0.00066    0.00131
        359    42 -109.076334 -109.077029    0.000695   3.067    0.00065    0.00129
        360    42 -109.076330 -109.076923    0.000593   3.067    0.00064    0.00127
        361    42 -109.076326 -109.076789    0.000463   3.067    0.00063    0.00125
        362    42 -109.076324 -109.076639    0.000315   3.067    0.00063    0.00123
        363    42 -109.076323 -109.076479    0.000155   3.067    0.00062    0.00120
        364    42 -109.076324 -109.076320    0.000005   3.067    0.00061    0.00118
        365    42 -109.076326 -109.076170    0.000156   3.067    0.00061    0.00116
        366    42 -109.076329 -109.076037    0.000293   3.067    0.00060    0.00114
        367    42 -109.076333 -109.075925    0.000408   3.067    0.00060    0.00112
        368    42 -109.076338 -109.075838    0.000500   3.067    0.00060    0.00109
        369    42 -109.076343 -109.075775    0.000567   3.067    0.00059    0.00107
        370    42 -109.076347 -109.075736    0.000611   3.067    0.00059    0.00105
        371    42 -109.076352 -109.075717    0.000635   3.067    0.00059    0.00102
        372    42 -109.076356 -109.075714    0.000641   3.067    0.00058    0.00100
        373    42 -109.076359 -109.075724    0.000635   3.067    0.00058    0.00098
        374    42 -109.076362 -109.075743    0.000619   3.067    0.00058    0.00095
        375    42 -109.076364 -109.075767    0.000597   3.067    0.00058    0.00093
        376    42 -109.076366 -109.075794    0.000572   3.067    0.00057    0.00090
        377    42 -109.076368 -109.075822    0.000546   3.067    0.00057    0.00088
        378    42 -109.076369 -109.075850    0.000519   3.067    0.00057    0.00085
        379    42 -109.076370 -109.075877    0.000493   3.067    0.00057    0.00083
        380    42 -109.076370 -109.075902    0.000468   3.067    0.00056    0.00081
        381    42 -109.076370 -109.075927    0.000443   3.067    0.00056    0.00078
        382    42 -109.076370 -109.075952    0.000418   3.067    0.00056    0.00076
        383    42 -109.076369 -109.075976    0.000393   3.067    0.00055    0.00074
        384    42 -109.076368 -109.076000    0.000368   3.067    0.00055    0.00072
        385    42 -109.076367 -109.076024    0.000343   3.067    0.00055    0.00071
        386    42 -109.076366 -109.076047    0.000318   3.067    0.00055    0.00069
        387    42 -109.076364 -109.076069    0.000296   3.067    0.00054    0.00067
        388    42 -109.076363 -109.076086    0.000276   3.067    0.00054    0.00066
        389    42 -109.076361 -109.076099    0.000261   3.067    0.00054    0.00064
        390    42 -109.076359 -109.076106    0.000253   3.067    0.00053    0.00063
        391    42 -109.076356 -109.076104    0.000252   3.067    0.00053    0.00061
        392    42 -109.076354 -109.076093    0.000261   3.067    0.00053    0.00060
        393    42 -109.076352 -109.076072    0.000280   3.067    0.00052    0.00059
        394    42 -109.076350 -109.076041    0.000309   3.067    0.00052    0.00058
        395    42 -109.076348 -109.076000    0.000348   3.067    0.00052    0.00057
        396    42 -109.076347 -109.075951    0.000395   3.067    0.00051    0.00057
        397    42 -109.076345 -109.075895    0.000450   3.067    0.00051    0.00056
        398    42 -109.076345 -109.075835    0.000510   3.067    0.00050    0.00056
        399    42 -109.076344 -109.075772    0.000573   3.067    0.00050    0.00056

        ==> Orbital Optimization <==

            Orbital Optimization converged in  16 iterations 
            Total energy change: -1.236236e-02
            Final gradient norm: 6.238710e-05

        400    42 -109.088707 -107.446914    1.641793   2.731    0.00050    0.00056
        401    83 -109.103540 -108.738582    0.364957   2.731    0.02807    0.12464
        402    42 -109.105638 -108.825492    0.280146   2.731    0.03108    0.08365
        403    42 -109.108991 -108.998918    0.110073   2.731    0.02716    0.06803
        404    41 -109.111319 -109.124595    0.013276   2.731    0.02217    0.05888
        405    38 -109.111096 -109.204750    0.093654   2.731    0.01698    0.05665
        406    36 -109.110723 -109.237627    0.126904   2.731    0.01406    0.05501
        407    42 -109.108923 -109.227180    0.118257   2.731    0.01384    0.05238
        408    42 -109.106226 -109.211812    0.105586   2.731    0.01458    0.04879
        409    41 -109.105657 -109.191474    0.085817   2.731    0.01673    0.04379
        410    41 -109.099436 -109.168154    0.068717   2.731    0.01126    0.04082
        411    42 -109.097744 -109.152478    0.054734   2.731    0.00844    0.03797
        412    39 -109.096935 -109.139151    0.042216   2.731    0.00849    0.03588
        413    41 -109.096928 -109.126356    0.029429   2.731    0.00945    0.03354
        414    35 -109.095898 -109.118032    0.022134   2.731    0.00960    0.03309
        415    35 -109.096013 -109.125930    0.029917   2.731    0.00884    0.03107
        416    39 -109.095812 -109.108212    0.012400   2.731    0.00824    0.02964
        417    41 -109.095697 -109.100342    0.004645   2.731    0.00744    0.02782
        418    42 -109.095799 -109.083762    0.012037   2.731    0.00710    0.02616
        419    41 -109.096632 -109.077288    0.019343   2.731    0.00693    0.02470
        420    41 -109.097385 -109.069100    0.028285   2.731    0.00702    0.02350
        421    37 -109.098330 -109.073157    0.025173   2.731    0.00729    0.02194
        422    41 -109.099129 -109.075911    0.023218   2.731    0.00758    0.02023
        423    37 -109.099797 -109.085304    0.014493   2.731    0.00779    0.01859
        424    37 -109.099977 -109.093639    0.006339   2.731    0.00789    0.01720
        425    36 -109.099980 -109.103624    0.003643   2.731    0.00798    0.01607
        426    36 -109.099803 -109.111675    0.011872   2.731    0.00810    0.01519
        427    36 -109.099717 -109.118908    0.019191   2.731    0.00827    0.01436
        428    37 -109.099545 -109.123530    0.023985   2.731    0.00843    0.01362
        429    37 -109.098781 -109.125725    0.026944   2.731    0.00841    0.01302
        430    40 -109.098472 -109.129555    0.031082   2.731    0.00839    0.01231
        431    41 -109.098077 -109.131279    0.033202   2.731    0.00833    0.01181
        432    36 -109.097710 -109.133281    0.035570   2.731    0.00828    0.01143
        433    39 -109.097400 -109.133459    0.036059   2.731    0.00829    0.01073
        434    40 -109.097013 -109.131481    0.034467   2.731    0.00833    0.01002
        435    39 -109.096542 -109.127527    0.030985   2.731    0.00834    0.00926
        436    39 -109.096038 -109.122782    0.026744   2.731    0.00836    0.00845
        437    37 -109.095543 -109.118092    0.022549   2.731    0.00842    0.00757
        438    37 -109.095118 -109.113849    0.018731   2.731    0.00847    0.00748
        439    37 -109.094646 -109.112292    0.017645   2.731    0.00850    0.00662
        440    40 -109.094342 -109.107469    0.013127   2.731    0.00852    0.00646
        441    40 -109.094182 -109.102879    0.008697   2.731    0.00852    0.00653
        442    40 -109.094163 -109.097765    0.003602   2.731    0.00842    0.00714
        443    37 -109.094208 -109.093872    0.000336   2.731    0.00833    0.00743
        444    36 -109.094352 -109.089697    0.004655   2.731    0.00818    0.00792
        445    36 -109.094602 -109.085089    0.009512   2.731    0.00802    0.00829
        446    36 -109.094900 -109.080746    0.014154   2.731    0.00784    0.00849
        447    37 -109.095211 -109.077024    0.018187   2.731    0.00767    0.00854
        448    36 -109.095538 -109.074377    0.021161   2.731    0.00751    0.00851
        449    37 -109.095826 -109.073093    0.022733   2.731    0.00735    0.00843
        450    37 -109.096120 -109.073114    0.023005   2.731    0.00719    0.00836
        451    37 -109.096366 -109.074077    0.022289   2.731    0.00703    0.00831
        452    37 -109.096586 -109.075849    0.020737   2.731    0.00688    0.00829
        453    37 -109.096751 -109.078335    0.018416   2.731    0.00674    0.00827
        454    37 -109.096867 -109.081583    0.015284   2.731    0.00660    0.00827
        455    37 -109.096927 -109.085242    0.011685   2.731    0.00643    0.00833
        456    38 -109.096934 -109.088893    0.008041   2.731    0.00625    0.00846
        457    38 -109.096869 -109.092722    0.004148   2.731    0.00607    0.00860
        458    38 -109.096758 -109.095147    0.001612   2.731    0.00589    0.00874
        459    38 -109.096587 -109.097090    0.000503   2.731    0.00566    0.00898
        460    38 -109.096462 -109.099548    0.003085   2.731    0.00536    0.00925
        461    38 -109.096395 -109.102896    0.006501   2.731    0.00506    0.00960
        462    38 -109.096260 -109.105450    0.009189   2.731    0.00480    0.00974
        463    38 -109.096000 -109.106610    0.010610   2.731    0.00458    0.00982
        464    38 -109.095699 -109.107478    0.011780   2.731    0.00437    0.00989
        465    38 -109.095394 -109.107676    0.012282   2.731    0.00412    0.01024
        466    38 -109.095161 -109.109498    0.014337   2.731    0.00384    0.00992
        467    38 -109.094639 -109.107861    0.013223   2.731    0.00378    0.00964
        468    41 -109.094171 -109.108011    0.013840   2.731    0.00380    0.00928
        469    41 -109.093747 -109.107051    0.013304   2.731    0.00384    0.00885
        470    40 -109.093393 -109.105679    0.012286   2.731    0.00385    0.00848
        471    41 -109.093129 -109.102605    0.009475   2.731    0.00382    0.00819
        472    38 -109.092956 -109.098851    0.005895   2.731    0.00378    0.00794
        473    38 -109.092880 -109.094471    0.001590   2.731    0.00370    0.00778
        474    42 -109.092911 -109.090330    0.002580   2.731    0.00360    0.00759
        475    41 -109.093005 -109.085668    0.007337   2.731    0.00348    0.00749
        476    42 -109.093146 -109.081698    0.011448   2.731    0.00338    0.00742
        477    42 -109.093347 -109.078351    0.014995   2.731    0.00328    0.00736
        478    42 -109.093599 -109.076186    0.017413   2.731    0.00318    0.00730
        479    41 -109.093913 -109.075403    0.018510   2.731    0.00310    0.00715
        480    41 -109.094248 -109.074634    0.019614   2.731    0.00304    0.00698
        481    40 -109.094584 -109.074837    0.019747   2.731    0.00299    0.00678
        482    41 -109.094904 -109.075307    0.019598   2.731    0.00296    0.00654
        483    38 -109.095185 -109.076645    0.018539   2.731    0.00293    0.00633
        484    41 -109.095445 -109.079461    0.015983   2.731    0.00289    0.00613
        485    42 -109.095675 -109.082087    0.013588   2.731    0.00285    0.00585
        486    38 -109.095856 -109.084168    0.011687   2.731    0.00283    0.00561
        487    41 -109.095995 -109.086403    0.009591   2.731    0.00281    0.00532
        488    38 -109.096005 -109.087895    0.008109   2.731    0.00277    0.00509
        489    41 -109.095960 -109.090006    0.005954   2.731    0.00270    0.00497
        490    39 -109.095899 -109.092862    0.003038   2.731    0.00265    0.00483
        491    41 -109.095830 -109.095398    0.000432   2.731    0.00261    0.00475
        492    42 -109.095691 -109.097324    0.001634   2.731    0.00257    0.00468
        493    39 -109.095524 -109.098975    0.003451   2.731    0.00254    0.00459
        494    39 -109.095228 -109.100122    0.004894   2.731    0.00244    0.00452
        495    39 -109.095020 -109.101193    0.006174   2.731    0.00240    0.00441
        496    41 -109.094838 -109.101664    0.006827   2.731    0.00235    0.00431
        497    41 -109.094656 -109.101667    0.007011   2.731    0.00230    0.00423
        498    41 -109.094506 -109.101260    0.006754   2.731    0.00224    0.00415
        499    41 -109.094324 -109.100520    0.006196   2.731    0.00218    0.00408
        500    41 -109.094028 -109.099665    0.005637   2.731    0.00223    0.00405
        501    41 -109.094035 -109.099017    0.004982   2.731    0.00207    0.00395
        502    41 -109.093923 -109.097705    0.003783   2.731    0.00205    0.00387
        503    41 -109.093929 -109.096469    0.002540   2.731    0.00196    0.00381
        504    41 -109.093909 -109.094994    0.001085   2.731    0.00192    0.00374
        505    41 -109.093943 -109.093819    0.000124   2.731    0.00185    0.00367
        506    41 -109.093975 -109.092667    0.001308   2.731    0.00180    0.00362
        507    41 -109.094032 -109.091566    0.002466   2.731    0.00175    0.00360
        508    41 -109.094093 -109.090463    0.003630   2.731    0.00170    0.00359
        509    41 -109.094165 -109.089444    0.004720   2.731    0.00166    0.00357
        510    41 -109.094236 -109.088551    0.005685   2.731    0.00164    0.00352
        511    41 -109.094306 -109.087973    0.006333   2.731    0.00163    0.00344
        512    41 -109.094373 -109.087659    0.006713   2.731    0.00164    0.00335
        513    41 -109.094438 -109.087524    0.006914   2.731    0.00164    0.00325
        514    41 -109.094497 -109.087526    0.006971   2.731    0.00166    0.00314
        515    41 -109.094548 -109.087674    0.006874   2.731    0.00167    0.00299
        516    41 -109.094587 -109.087986    0.006602   2.731    0.00169    0.00282
        517    41 -109.094614 -109.088466    0.006149   2.731    0.00171    0.00262
        518    42 -109.094628 -109.089089    0.005540   2.731    0.00172    0.00242
        519    42 -109.094631 -109.089835    0.004796   2.731    0.00174    0.00223
        520    42 -109.094622 -109.090646    0.003977   2.731    0.00175    0.00207
        521    42 -109.094605 -109.091498    0.003107   2.731    0.00175    0.00194
        522    42 -109.094581 -109.092349    0.002232   2.731    0.00174    0.00184
        523    42 -109.094558 -109.093230    0.001328   2.731    0.00172    0.00180
        524    39 -109.094530 -109.094004    0.000527   2.731    0.00170    0.00181
        525    39 -109.094495 -109.094617    0.000123   2.731    0.00168    0.00186
        526    39 -109.094457 -109.095173    0.000717   2.731    0.00165    0.00194
        527    42 -109.094419 -109.095591    0.001172   2.731    0.00161    0.00203
        528    42 -109.094386 -109.095929    0.001543   2.731    0.00158    0.00212
        529    41 -109.094356 -109.096114    0.001758   2.731    0.00155    0.00222
        530    41 -109.094332 -109.096222    0.001890   2.731    0.00152    0.00230
        531    41 -109.094313 -109.096218    0.001906   2.731    0.00149    0.00236
        532    41 -109.094293 -109.096118    0.001824   2.731    0.00147    0.00240
        533    41 -109.094285 -109.096021    0.001737   2.731    0.00145    0.00242
        534    41 -109.094276 -109.095787    0.001512   2.731    0.00144    0.00242
        535    41 -109.094224 -109.095523    0.001299   2.731    0.00143    0.00240
        536    41 -109.094120 -109.095307    0.001187   2.731    0.00145    0.00238
        537    41 -109.094145 -109.095193    0.001047   2.731    0.00145    0.00234
        538    41 -109.094093 -109.094634    0.000541   2.731    0.00148    0.00229
        539    41 -109.094091 -109.094152    0.000062   2.731    0.00150    0.00223
        540    41 -109.094068 -109.093501    0.000567   2.731    0.00155    0.00216
        541    41 -109.094071 -109.092910    0.001161   2.731    0.00157    0.00209
        542    41 -109.094080 -109.092458    0.001622   2.731    0.00154    0.00222
        543    39 -109.094140 -109.093083    0.001056   2.731    0.00144    0.00216
        544    41 -109.094145 -109.092634    0.001511   2.731    0.00141    0.00222
        545    39 -109.094167 -109.092957    0.001210   2.731    0.00135    0.00230
        546    41 -109.094183 -109.093014    0.001169   2.731    0.00127    0.00236
        547    39 -109.094178 -109.093177    0.001001   2.731    0.00120    0.00240
        548    38 -109.094151 -109.093226    0.000924   2.731    0.00115    0.00238
        549    37 -109.094123 -109.093514    0.000609   2.731    0.00109    0.00232
        550    38 -109.094092 -109.094117    0.000025   2.731    0.00105    0.00224
        551    39 -109.094053 -109.094613    0.000560   2.731    0.00104    0.00218
        552    39 -109.094003 -109.095113    0.001110   2.731    0.00106    0.00211
        553    42 -109.093941 -109.095473    0.001532   2.731    0.00106    0.00202
        554    42 -109.093875 -109.095662    0.001787   2.731    0.00106    0.00192
        555    42 -109.093810 -109.095564    0.001754   2.731    0.00105    0.00180
        556    42 -109.093756 -109.095227    0.001471   2.731    0.00103    0.00174
        557    42 -109.093714 -109.094975    0.001261   2.731    0.00098    0.00164
        558    42 -109.093704 -109.094302    0.000598   2.731    0.00095    0.00161
        559    42 -109.093716 -109.093752    0.000036   2.731    0.00091    0.00162
        560    42 -109.093750 -109.093181    0.000569   2.731    0.00087    0.00164
        561    42 -109.093796 -109.092817    0.000978   2.731    0.00084    0.00167
        562    42 -109.093851 -109.092594    0.001257   2.731    0.00080    0.00168
        563    41 -109.093910 -109.092557    0.001353   2.731    0.00078    0.00166
        564    41 -109.093967 -109.092652    0.001315   2.731    0.00077    0.00162
        565    42 -109.094021 -109.092875    0.001145   2.731    0.00078    0.00157
        566    39 -109.094068 -109.093208    0.000860   2.731    0.00078    0.00151
        567    39 -109.094106 -109.093621    0.000486   2.731    0.00079    0.00146
        568    39 -109.094135 -109.094128    0.000008   2.731    0.00079    0.00143
        569    39 -109.094153 -109.094686    0.000533   2.731    0.00078    0.00142
        570    39 -109.094161 -109.095307    0.001146   2.731    0.00076    0.00141
        571    39 -109.094156 -109.095871    0.001715   2.731    0.00074    0.00140
        572    39 -109.094141 -109.096422    0.002281   2.731    0.00072    0.00139
        573    39 -109.094115 -109.096942    0.002827   2.731    0.00070    0.00135
        574    39 -109.094080 -109.097372    0.003292   2.731    0.00068    0.00131
        575    39 -109.094037 -109.097659    0.003622   2.731    0.00067    0.00127
        576    39 -109.093987 -109.097798    0.003811   2.731    0.00067    0.00123
        577    41 -109.093933 -109.097803    0.003870   2.731    0.00069    0.00118
        578    42 -109.093879 -109.097698    0.003819   2.731    0.00072    0.00112
        579    42 -109.093830 -109.097501    0.003671   2.731    0.00074    0.00105
        580    42 -109.093787 -109.097228    0.003441   2.731    0.00076    0.00098
        581    42 -109.093754 -109.096890    0.003137   2.731    0.00077    0.00093
        582    42 -109.093729 -109.096495    0.002767   2.731    0.00076    0.00089
        583    41 -109.093713 -109.096051    0.002338   2.731    0.00074    0.00088
        584    41 -109.093704 -109.095574    0.001870   2.731    0.00071    0.00090
        585    42 -109.093702 -109.095130    0.001427   2.731    0.00068    0.00091
        586    41 -109.093707 -109.094667    0.000959   2.731    0.00064    0.00093
        587    41 -109.093719 -109.094225    0.000506   2.731    0.00059    0.00093
        588    41 -109.093740 -109.093738    0.000002   2.731    0.00053    0.00096
        589    42 -109.093796 -109.093619    0.000177   2.731    0.00044    0.00096
        590    41 -109.093892 -109.093467    0.000424   2.731    0.00037    0.00092
        591    41 -109.093950 -109.092926    0.001024   2.731    0.00038    0.00086
        592    41 -109.094004 -109.092616    0.001388   2.731    0.00041    0.00081
        593    41 -109.094036 -109.092315    0.001721   2.731    0.00044    0.00077
        594    41 -109.094065 -109.092287    0.001778   2.731    0.00044    0.00074
        595    41 -109.094084 -109.092456    0.001628   2.731    0.00042    0.00070
        596    41 -109.094099 -109.092815    0.001284   2.731    0.00041    0.00067
        597    41 -109.094105 -109.093281    0.000824   2.731    0.00039    0.00064
        598    41 -109.094106 -109.093767    0.000339   2.731    0.00038    0.00066
        599    41 -109.094101 -109.094179    0.000078   2.731    0.00036    0.00069

        ==> Orbital Optimization <==

            Orbital Optimization converged in  11 iterations 
            Total energy change: -5.858023e-04
            Final gradient norm: 7.510860e-05

        600    41 -109.094678 -108.753585    0.341092   1.310    0.00034    0.00071
        601    79 -109.097229 -109.017064    0.080165   1.310    0.01625    0.02652
        602    41 -109.102043 -109.054762    0.047281   1.310    0.01757    0.01444
        603    42 -109.105442 -109.086326    0.019116   1.310    0.01458    0.01376
        604    35 -109.106345 -109.094181    0.012164   1.310    0.01256    0.01225
        605    38 -109.104259 -109.090657    0.013602   1.310    0.01037    0.01036
        606    41 -109.102794 -109.086869    0.015925   1.310    0.00863    0.00869
        607    41 -109.100704 -109.092804    0.007900   1.310    0.00658    0.00759
        608    40 -109.099964 -109.097638    0.002326   1.310    0.00514    0.00692
        609    41 -109.099549 -109.101748    0.002199   1.310    0.00451    0.00675
        610    37 -109.098328 -109.104653    0.006325   1.310    0.00423    0.00624
        611    38 -109.097820 -109.106803    0.008983   1.310    0.00420    0.00530
        612    42 -109.096909 -109.106834    0.009925   1.310    0.00404    0.00494
        613    37 -109.096465 -109.108999    0.012534   1.310    0.00365    0.00487
        614    41 -109.095985 -109.109463    0.013478   1.310    0.00333    0.00478
        615    38 -109.095275 -109.108853    0.013578   1.310    0.00347    0.00433
        616    33 -109.094616 -109.108240    0.013624   1.310    0.00351    0.00368
        617    32 -109.094112 -109.107391    0.013280   1.310    0.00321    0.00328
        618    38 -109.093831 -109.107196    0.013365   1.310    0.00262    0.00294
        619    38 -109.093688 -109.106334    0.012646   1.310    0.00204    0.00306
        620    38 -109.093599 -109.106036    0.012438   1.310    0.00173    0.00305
        621    34 -109.093607 -109.104908    0.011301   1.310    0.00176    0.00296
        622    37 -109.093648 -109.104007    0.010359   1.310    0.00187    0.00278
        623    37 -109.093760 -109.102832    0.009072   1.310    0.00183    0.00259
        624    35 -109.093907 -109.101279    0.007372   1.310    0.00175    0.00240
        625    33 -109.094082 -109.099554    0.005472   1.310    0.00171    0.00222
        626    32 -109.094173 -109.097916    0.003743   1.310    0.00175    0.00202
        627    32 -109.094095 -109.096864    0.002769   1.310    0.00183    0.00174
        628    30 -109.094076 -109.096327    0.002251   1.310    0.00191    0.00149
        629    30 -109.094082 -109.095769    0.001687   1.310    0.00182    0.00146
        630    32 -109.094118 -109.094936    0.000818   1.310    0.00159    0.00157
        631    36 -109.094177 -109.093896    0.000281   1.310    0.00135    0.00165
        632    37 -109.094259 -109.092897    0.001362   1.310    0.00123    0.00162
        633    38 -109.094399 -109.091930    0.002470   1.310    0.00121    0.00152
        634    38 -109.094585 -109.091199    0.003386   1.310    0.00119    0.00141
        635    37 -109.094814 -109.090676    0.004138   1.310    0.00111    0.00134
        636    36 -109.095061 -109.090388    0.004673   1.310    0.00102    0.00133
        637    35 -109.095294 -109.090630    0.004664   1.310    0.00098    0.00120
        638    33 -109.095483 -109.090503    0.004980   1.310    0.00097    0.00108
        639    35 -109.095409 -109.090856    0.004553   1.310    0.00087    0.00105
        640    36 -109.095569 -109.091845    0.003724   1.310    0.00085    0.00099
        641    35 -109.095566 -109.092521    0.003045   1.310    0.00080    0.00100
        642    36 -109.095590 -109.093268    0.002321   1.310    0.00077    0.00101
        643    37 -109.095535 -109.093877    0.001657   1.310    0.00072    0.00101
        644    38 -109.095480 -109.094516    0.000964   1.310    0.00070    0.00099
        645    36 -109.095395 -109.094936    0.000459   1.310    0.00069    0.00095
        646    35 -109.095316 -109.095331    0.000015   1.310    0.00070    0.00089
        647    38 -109.095238 -109.095644    0.000406   1.310    0.00070    0.00082
        648    36 -109.095181 -109.095912    0.000731   1.310    0.00071    0.00077
        649    36 -109.095133 -109.096203    0.001070   1.310    0.00072    0.00071
        650    36 -109.095095 -109.096294    0.001198   1.310    0.00073    0.00067
        651    38 -109.095054 -109.096333    0.001279   1.310    0.00073    0.00063
        652    38 -109.094982 -109.096272    0.001290   1.310    0.00067    0.00059
        653    38 -109.094855 -109.096223    0.001369   1.310    0.00058    0.00057
        654    38 -109.094772 -109.096206    0.001434   1.310    0.00052    0.00055
        655    39 -109.094730 -109.096134    0.001404   1.310    0.00048    0.00053
        656    39 -109.094651 -109.095976    0.001324   1.310    0.00044    0.00052
        657    39 -109.094597 -109.095822    0.001225   1.310    0.00044    0.00052
        658    39 -109.094577 -109.095641    0.001064   1.310    0.00045    0.00053
        659    42 -109.094568 -109.095429    0.000861   1.310    0.00046    0.00055
        660    39 -109.094571 -109.095237    0.000666   1.310    0.00048    0.00056
        661    39 -109.094591 -109.095073    0.000482   1.310    0.00048    0.00057
        662    39 -109.094627 -109.094951    0.000323   1.310    0.00048    0.00056
        663    39 -109.094677 -109.094864    0.000187   1.310    0.00048    0.00054
        664    35 -109.094736 -109.094816    0.000081   1.310    0.00048    0.00050
        665    34 -109.094794 -109.094788    0.000006   1.310    0.00048    0.00047
        666    33 -109.094848 -109.094797    0.000051   1.310    0.00049    0.00043
        667    33 -109.094896 -109.094829    0.000067   1.310    0.00051    0.00039
        668    35 -109.094933 -109.094884    0.000049   1.310    0.00052    0.00035
        669    38 -109.094959 -109.094960    0.000001   1.310    0.00052    0.00032
        670    38 -109.094938 -109.095023    0.000085   1.310    0.00051    0.00031
        671    41 -109.094956 -109.095130    0.000174   1.310    0.00050    0.00030
        672    41 -109.094940 -109.095158    0.000218   1.310    0.00049    0.00030
        673    41 -109.094935 -109.095178    0.000243   1.310    0.00048    0.00030
        674    38 -109.094914 -109.095142    0.000228   1.310    0.00047    0.00031
        675    39 -109.094897 -109.095087    0.000191   1.310    0.00046    0.00032
        676    38 -109.094873 -109.094998    0.000124   1.310    0.00045    0.00033
        677    38 -109.094853 -109.094891    0.000039   1.310    0.00044    0.00033
        678    38 -109.094832 -109.094768    0.000065   1.310    0.00044    0.00032
        679    39 -109.094818 -109.094634    0.000184   1.310    0.00044    0.00031
        680    39 -109.094808 -109.094497    0.000310   1.310    0.00044    0.00029
        681    39 -109.094804 -109.094365    0.000439   1.310    0.00044    0.00027
        682    39 -109.094805 -109.094244    0.000561   1.310    0.00044    0.00025
        683    39 -109.094813 -109.094141    0.000671   1.310    0.00044    0.00024
        684    39 -109.094824 -109.094063    0.000761   1.310    0.00044    0.00022
        685    40 -109.094838 -109.094011    0.000827   1.310    0.00044    0.00020
        686    40 -109.094854 -109.093988    0.000866   1.310    0.00044    0.00019
        687    42 -109.094871 -109.093992    0.000878   1.310    0.00043    0.00018
        688    42 -109.094886 -109.094027    0.000858   1.310    0.00043    0.00017
        689    42 -109.094899 -109.094082    0.000817   1.310    0.00043    0.00017
        690    42 -109.094910 -109.094160    0.000750   1.310    0.00042    0.00016
        691    42 -109.094918 -109.094253    0.000665   1.310    0.00042    0.00016
        692    42 -109.094922 -109.094360    0.000562   1.310    0.00041    0.00015
        693    42 -109.094924 -109.094478    0.000446   1.310    0.00041    0.00015
        694    42 -109.094922 -109.094602    0.000320   1.310    0.00041    0.00014
        695    42 -109.094919 -109.094729    0.000190   1.310    0.00040    0.00014
        696    42 -109.094913 -109.094855    0.000057   1.310    0.00040    0.00014
        697    42 -109.094905 -109.094977    0.000072   1.310    0.00040    0.00013
        698    42 -109.094897 -109.095091    0.000194   1.310    0.00039    0.00013
        699    42 -109.094887 -109.095193    0.000306   1.310    0.00039    0.00014
        700    42 -109.094876 -109.095279    0.000404   1.310    0.00038    0.00014
        701    42 -109.094864 -109.095348    0.000484   1.310    0.00038    0.00014
        702    42 -109.094852 -109.095397    0.000545   1.310    0.00037    0.00014
        703    40 -109.094839 -109.095424    0.000585   1.310    0.00037    0.00014
        704    40 -109.094827 -109.095426    0.000599   1.310    0.00037    0.00014
        705    42 -109.094816 -109.095407    0.000592   1.310    0.00036    0.00014
        706    42 -109.094804 -109.095368    0.000563   1.310    0.00036    0.00014
        707    42 -109.094794 -109.095307    0.000512   1.310    0.00036    0.00014
        708    42 -109.094785 -109.095229    0.000444   1.310    0.00036    0.00013
        709    42 -109.094779 -109.095138    0.000360   1.310    0.00037    0.00013
        710    42 -109.094774 -109.095037    0.000264   1.310    0.00037    0.00013
        711    42 -109.094771 -109.094931    0.000160   1.310    0.00037    0.00013
        712    42 -109.094771 -109.094823    0.000052   1.310    0.00038    0.00013
        713    42 -109.094773 -109.094718    0.000055   1.310    0.00038    0.00014
        714    40 -109.094778 -109.094656    0.000122   1.310    0.00037    0.00014
        715    40 -109.094784 -109.094586    0.000198   1.310    0.00037    0.00014
        716    40 -109.094791 -109.094540    0.000251   1.310    0.00037    0.00015
        717    40 -109.094799 -109.094509    0.000289   1.310    0.00036    0.00016
        718    40 -109.094807 -109.094494    0.000314   1.310    0.00035    0.00017
        719    39 -109.094816 -109.094486    0.000330   1.310    0.00034    0.00018
        720    39 -109.094824 -109.094487    0.000337   1.310    0.00033    0.00019
        721    39 -109.094831 -109.094494    0.000338   1.310    0.00032    0.00019
        722    39 -109.094838 -109.094507    0.000331   1.310    0.00031    0.00020
        723    39 -109.094845 -109.094526    0.000318   1.310    0.00030    0.00021
        724    39 -109.094850 -109.094550    0.000300   1.310    0.00028    0.00021
        725    39 -109.094853 -109.094577    0.000276   1.310    0.00027    0.00022
        726    39 -109.094855 -109.094607    0.000249   1.310    0.00025    0.00022
        727    39 -109.094856 -109.094638    0.000218   1.310    0.00024    0.00023
        728    39 -109.094856 -109.094671    0.000185   1.310    0.00023    0.00023
        729    39 -109.094854 -109.094703    0.000151   1.310    0.00022    0.00023
        730    39 -109.094851 -109.094735    0.000116   1.310    0.00021    0.00023
        731    39 -109.094848 -109.094767    0.000081   1.310    0.00021    0.00023
        732    39 -109.094844 -109.094797    0.000047   1.310    0.00020    0.00023
        733    38 -109.094839 -109.094824    0.000015   1.310    0.00020    0.00023
        734    35 -109.094837 -109.094847    0.000011   1.310    0.00020    0.00023
        735    35 -109.094831 -109.094868    0.000037   1.310    0.00020    0.00023
        736    35 -109.094828 -109.094883    0.000055   1.310    0.00020    0.00023
        737    35 -109.094823 -109.094891    0.000068   1.310    0.00020    0.00023
        738    35 -109.094820 -109.094896    0.000076   1.310    0.00020    0.00023
        739    35 -109.094817 -109.094896    0.000079   1.310    0.00020    0.00022
        740    35 -109.094813 -109.094910    0.000097   1.310    0.00021    0.00021
        741    35 -109.094810 -109.094929    0.000119   1.310    0.00022    0.00020
        742    38 -109.094808 -109.094938    0.000129   1.310    0.00023    0.00019
        743    38 -109.094810 -109.094927    0.000117   1.310    0.00025    0.00018
        744    38 -109.094812 -109.094907    0.000095   1.310    0.00026    0.00017
        745    38 -109.094815 -109.094879    0.000064   1.310    0.00027    0.00016
        746    40 -109.094817 -109.094861    0.000045   1.310    0.00028    0.00014
        747    38 -109.094816 -109.094865    0.000049   1.310    0.00028    0.00013
        748    38 -109.094814 -109.094856    0.000042   1.310    0.00028    0.00012
        749    38 -109.094809 -109.094842    0.000033   1.310    0.00028    0.00012
        750    38 -109.094803 -109.094815    0.000012   1.310    0.00027    0.00012
        751    38 -109.094796 -109.094780    0.000015   1.310    0.00026    0.00012
        752    38 -109.094788 -109.094742    0.000046   1.310    0.00024    0.00013
        753    38 -109.094782 -109.094705    0.000077   1.310    0.00023    0.00013
        754    39 -109.094778 -109.094670    0.000108   1.310    0.00022    0.00013
        755    39 -109.094775 -109.094640    0.000135   1.310    0.00021    0.00013
        756    39 -109.094775 -109.094617    0.000158   1.310    0.00021    0.00013
        757    39 -109.094776 -109.094593    0.000183   1.310    0.00020    0.00014
        758    39 -109.094780 -109.094573    0.000207   1.310    0.00020    0.00014
        759    39 -109.094784 -109.094556    0.000229   1.310    0.00020    0.00014
        760    39 -109.094789 -109.094553    0.000237   1.310    0.00019    0.00015
        761    38 -109.094794 -109.094560    0.000234   1.310    0.00019    0.00015
        762    36 -109.094800 -109.094555    0.000245   1.310    0.00019    0.00016
        763    35 -109.094802 -109.094563    0.000239   1.310    0.00018    0.00016
        764    35 -109.094806 -109.094571    0.000235   1.310    0.00018    0.00016
        765    32 -109.094806 -109.094593    0.000213   1.310    0.00018    0.00017
        766    34 -109.094808 -109.094620    0.000189   1.310    0.00018    0.00017
        767    34 -109.094807 -109.094652    0.000155   1.310    0.00018    0.00017
        768    33 -109.094807 -109.094683    0.000123   1.310    0.00018    0.00017
        769    34 -109.094806 -109.094714    0.000092   1.310    0.00018    0.00017
        770    35 -109.094803 -109.094743    0.000060   1.310    0.00018    0.00016
        771    34 -109.094802 -109.094769    0.000034   1.310    0.00019    0.00016
        772    34 -109.094798 -109.094791    0.000006   1.310    0.00019    0.00016
        773    35 -109.094798 -109.094811    0.000014   1.310    0.00019    0.00015
        774    35 -109.094794 -109.094827    0.000033   1.310    0.00019    0.00015
        775    39 -109.094791 -109.094837    0.000046   1.310    0.00019    0.00014
        776    34 -109.094788 -109.094844    0.000056   1.310    0.00019    0.00014
        777    39 -109.094783 -109.094841    0.000058   1.310    0.00020    0.00013
        778    35 -109.094780 -109.094838    0.000058   1.310    0.00020    0.00012
        779    42 -109.094774 -109.094822    0.000048   1.310    0.00020    0.00012
        780    34 -109.094772 -109.094814    0.000043   1.310    0.00020    0.00011
        781    42 -109.094766 -109.094790    0.000023   1.310    0.00020    0.00011
        782    35 -109.094765 -109.094779    0.000015   1.310    0.00021    0.00010
        783    42 -109.094761 -109.094752    0.000008   1.310    0.00021    0.00010
        784    35 -109.094761 -109.094743    0.000018   1.310    0.00021    0.00010
        785    42 -109.094760 -109.094717    0.000042   1.310    0.00021    0.00010
        786    39 -109.094761 -109.094710    0.000051   1.310    0.00020    0.00010
[...]
        926    35 -109.094819 -109.094803    0.000016   1.425    0.00013    0.00005
        927    35 -109.094817 -109.094814    0.000002   1.425    0.00013    0.00005
        928    35 -109.094815 -109.094823    0.000008   1.425    0.00013    0.00006
        929    35 -109.094813 -109.094828    0.000015   1.425    0.00013    0.00006
        930    35 -109.094812 -109.094832    0.000020   1.425    0.00013    0.00006
        931    34 -109.094811 -109.094833    0.000022   1.425    0.00013    0.00006
        932    34 -109.094811 -109.094832    0.000021   1.425    0.00013    0.00006
        933    35 -109.094811 -109.094829    0.000018   1.425    0.00013    0.00006
        934    35 -109.094811 -109.094824    0.000013   1.425    0.00013    0.00006
        935    35 -109.094811 -109.094818    0.000007   1.425    0.00013    0.00006
        936    35 -109.094812 -109.094811    0.000001   1.425    0.00013    0.00006
        937    38 -109.094812 -109.094804    0.000008   1.425    0.00013    0.00005
        938    38 -109.094813 -109.094795    0.000018   1.425    0.00013    0.00005
        939    38 -109.094813 -109.094786    0.000027   1.425    0.00013    0.00005
        940    38 -109.094814 -109.094777    0.000037   1.425    0.00013    0.00005
        941    38 -109.094814 -109.094767    0.000047   1.425    0.00013    0.00005
        942    38 -109.094815 -109.094758    0.000057   1.425    0.00013    0.00005
        943    38 -109.094815 -109.094748    0.000066   1.425    0.00013    0.00005
        944    38 -109.094815 -109.094739    0.000076   1.425    0.00013    0.00005
        945    38 -109.094815 -109.094731    0.000084   1.425    0.00013    0.00005
        946    38 -109.094815 -109.094723    0.000092   1.425    0.00013    0.00005
        947    38 -109.094815 -109.094715    0.000099   1.425    0.00012    0.00005
        948    38 -109.094815 -109.094709    0.000106   1.425    0.00012    0.00005
        949    38 -109.094815 -109.094703    0.000112   1.425    0.00012    0.00005
        950    38 -109.094815 -109.094698    0.000117   1.425    0.00012    0.00005
        951    38 -109.094815 -109.094694    0.000121   1.425    0.00012    0.00005
        952    35 -109.094815 -109.094691    0.000124   1.425    0.00012    0.00005
        953    35 -109.094815 -109.094689    0.000126   1.425    0.00012    0.00005
        954    35 -109.094815 -109.094688    0.000127   1.425    0.00011    0.00005
        955    35 -109.094816 -109.094689    0.000127   1.425    0.00011    0.00005
        956    36 -109.094816 -109.094691    0.000126   1.425    0.00011    0.00004
        957    35 -109.094817 -109.094694    0.000123   1.425    0.00011    0.00004
        958    35 -109.094818 -109.094697    0.000120   1.425    0.00011    0.00004
        959    36 -109.094818 -109.094702    0.000117   1.425    0.00011    0.00004
        960    39 -109.094819 -109.094708    0.000111   1.425    0.00011    0.00004
        961    39 -109.094820 -109.094714    0.000106   1.425    0.00011    0.00004
        962    39 -109.094821 -109.094721    0.000100   1.425    0.00011    0.00004
        963    39 -109.094821 -109.094728    0.000094   1.425    0.00011    0.00005
        964    39 -109.094822 -109.094735    0.000087   1.425    0.00011    0.00005
        965    39 -109.094823 -109.094742    0.000081   1.425    0.00011    0.00005
        966    39 -109.094823 -109.094749    0.000074   1.425    0.00011    0.00005
        967    39 -109.094823 -109.094755    0.000068   1.425    0.00011    0.00004
        968    42 -109.094824 -109.094761    0.000062   1.425    0.00011    0.00004
        969    42 -109.094824 -109.094766    0.000057   1.425    0.00011    0.00004
        970    42 -109.094824 -109.094771    0.000053   1.425    0.00011    0.00004
        971    42 -109.094824 -109.094775    0.000049   1.425    0.00011    0.00004
        972    42 -109.094823 -109.094777    0.000046   1.425    0.00011    0.00004
        973    42 -109.094823 -109.094779    0.000044   1.425    0.00011    0.00004
        974    42 -109.094822 -109.094779    0.000043   1.425    0.00011    0.00004
        975    42 -109.094822 -109.094779    0.000043   1.425    0.00011    0.00004
        976    42 -109.094821 -109.094778    0.000044   1.425    0.00010    0.00004
        977    42 -109.094820 -109.094775    0.000045   1.425    0.00010    0.00004
        978    42 -109.094820 -109.094772    0.000048   1.425    0.00010    0.00004
        979    42 -109.094819 -109.094768    0.000051   1.425    0.00010    0.00004
        980    42 -109.094819 -109.094763    0.000055   1.425    0.00010    0.00004
        981    42 -109.094818 -109.094758    0.000060   1.425    0.00010    0.00004
        982    42 -109.094818 -109.094753    0.000065   1.425    0.00010    0.00004

        ==> Orbital Optimization <==

            Orbital Optimization converged in   5 iterations 
            Total energy change: -6.426801e-07
            Final gradient norm: 7.990661e-05

        983    70 -109.094929 -109.091797    0.003132   1.425    0.00044    0.00084
        984    42 -109.095070 -109.093109    0.001961   1.425    0.00045    0.00051
        985    40 -109.095154 -109.093976    0.001178   1.425    0.00041    0.00045
        986    36 -109.095166 -109.094385    0.000781   1.425    0.00033    0.00043
        987    38 -109.095138 -109.094531    0.000606   1.425    0.00031    0.00037
        988    38 -109.095106 -109.094543    0.000563   1.425    0.00032    0.00025
        989    38 -109.095078 -109.094525    0.000554   1.425    0.00028    0.00021
        990    40 -109.095051 -109.094576    0.000474   1.425    0.00022    0.00025
        991    40 -109.095017 -109.094782    0.000235   1.425    0.00020    0.00029
        992    40 -109.094981 -109.095112    0.000131   1.425    0.00022    0.00029
        993    38 -109.094942 -109.095472    0.000530   1.425    0.00021    0.00028
        994    35 -109.094902 -109.095743    0.000841   1.425    0.00017    0.00028
        995    35 -109.094861 -109.095870    0.001009   1.425    0.00013    0.00028
        996    32 -109.094823 -109.095836    0.001013   1.425    0.00012    0.00027
        997    36 -109.094788 -109.095696    0.000908   1.425    0.00014    0.00024
        998    37 -109.094760 -109.095510    0.000751   1.425    0.00015    0.00021
        999    37 -109.094740 -109.095336    0.000596   1.425    0.00015    0.00019

        ==> Orbital Optimization <==

            Orbital Optimization converged in   3 iterations 
            Total energy change: -1.600745e-08
            Final gradient norm: 3.298586e-05

       1000    37 -109.094729 -109.094929    0.000200   1.354    0.00016    0.00016
       1001    39 -109.094710 -109.095417    0.000707   1.354    0.00020    0.00018
       1002    38 -109.094704 -109.095317    0.000613   1.354    0.00022    0.00014
       1003    41 -109.094708 -109.095183    0.000476   1.354    0.00022    0.00013
       1004    42 -109.094717 -109.095043    0.000325   1.354    0.00021    0.00014
       1005    42 -109.094732 -109.094922    0.000190   1.354    0.00020    0.00014
       1006    38 -109.094751 -109.094826    0.000075   1.354    0.00019    0.00015
       1007    38 -109.094771 -109.094761    0.000010   1.354    0.00017    0.00015
       1008    37 -109.094789 -109.094712    0.000077   1.354    0.00017    0.00015
       1009    37 -109.094805 -109.094683    0.000123   1.354    0.00016    0.00015
       1010    35 -109.094819 -109.094662    0.000157   1.354    0.00015    0.00014
       1011    32 -109.094829 -109.094650    0.000179   1.354    0.00014    0.00014
       1012    35 -109.094836 -109.094640    0.000196   1.354    0.00014    0.00013
       1013    35 -109.094841 -109.094633    0.000207   1.354    0.00013    0.00012
       1014    35 -109.094841 -109.094626    0.000215   1.354    0.00013    0.00012
       1015    34 -109.094840 -109.094620    0.000220   1.354    0.00013    0.00011
       1016    35 -109.094835 -109.094612    0.000223   1.354    0.00014    0.00011
       1017    35 -109.094830 -109.094604    0.000226   1.354    0.00014    0.00010
       1018    35 -109.094823 -109.094594    0.000229   1.354    0.00015    0.00010
       1019    35 -109.094817 -109.094583    0.000234   1.354    0.00015    0.00009
       1020    35 -109.094812 -109.094571    0.000241   1.354    0.00015    0.00009
       1021    35 -109.094809 -109.094560    0.000249   1.354    0.00014    0.00010
       1022    28 -109.094807 -109.094552    0.000255   1.354    0.00014    0.00010
       1023    33 -109.094807 -109.094546    0.000261   1.354    0.00013    0.00010
       1024    28 -109.094810 -109.094549    0.000261   1.354    0.00012    0.00010
       1025    35 -109.094814 -109.094555    0.000259   1.354    0.00011    0.00010
       1026    33 -109.094819 -109.094571    0.000248   1.354    0.00010    0.00010
       1027    33 -109.094825 -109.094591    0.000234   1.354    0.00009    0.00009
       1028    33 -109.094832 -109.094619    0.000213   1.354    0.00010    0.00009
       1029    35 -109.094838 -109.094650    0.000187   1.354    0.00010    0.00008
       1030    35 -109.094843 -109.094686    0.000157   1.354    0.00011    0.00007
       1031    35 -109.094847 -109.094725    0.000123   1.354    0.00011    0.00006
       1032    35 -109.094851 -109.094765    0.000086   1.354    0.00012    0.00006
       1033    38 -109.094852 -109.094806    0.000046   1.354    0.00012    0.00005
       1034    39 -109.094852 -109.094842    0.000010   1.354    0.00012    0.00006
       1035    38 -109.094850 -109.094878    0.000028   1.354    0.00012    0.00006
       1036    38 -109.094848 -109.094908    0.000060   1.354    0.00012    0.00007
       1037    38 -109.094843 -109.094933    0.000090   1.354    0.00011    0.00007
       1038    37 -109.094837 -109.094950    0.000113   1.354    0.00011    0.00007
       1039    38 -109.094831 -109.094960    0.000130   1.354    0.00011    0.00008
       1040    38 -109.094824 -109.094962    0.000138   1.354    0.00010    0.00008
       1041    38 -109.094817 -109.094957    0.000139   1.354    0.00010    0.00007
       1042    38 -109.094811 -109.094944    0.000133   1.354    0.00010    0.00007
       1043    38 -109.094805 -109.094925    0.000120   1.354    0.00010    0.00006
       1044    38 -109.094800 -109.094900    0.000100   1.354    0.00010    0.00006
       1045    38 -109.094796 -109.094872    0.000076   1.354    0.00011    0.00005
       1046    39 -109.094793 -109.094841    0.000048   1.354    0.00011    0.00005
       1047    39 -109.094792 -109.094809    0.000017   1.354    0.00011    0.00004
       1048    42 -109.094791 -109.094777    0.000014   1.354    0.00011    0.00004
       1049    39 -109.094792 -109.094745    0.000047   1.354    0.00011    0.00004
       1050    42 -109.094793 -109.094718    0.000075   1.354    0.00011    0.00004
       1051    39 -109.094796 -109.094691    0.000105   1.354    0.00010    0.00004
       1052    42 -109.094799 -109.094672    0.000127   1.354    0.00010    0.00005
       1053    38 -109.094802 -109.094653    0.000149   1.354    0.00010    0.00005
       1054    42 -109.094805 -109.094642    0.000164   1.354    0.00009    0.00005
       1055    35 -109.094809 -109.094631    0.000178   1.354    0.00009    0.00005
       1056    42 -109.094813 -109.094629    0.000184   1.354    0.00009    0.00005
       1057    34 -109.094816 -109.094625    0.000191   1.354    0.00009    0.00005
       1058    39 -109.094819 -109.094631    0.000189   1.354    0.00009    0.00005
       1059    38 -109.094822 -109.094634    0.000188   1.354    0.00009    0.00005
       1060    39 -109.094825 -109.094644    0.000182   1.354    0.00009    0.00004
       1061    39 -109.094827 -109.094653    0.000174   1.354    0.00009    0.00004
       1062    39 -109.094829 -109.094666    0.000164   1.354    0.00010    0.00004
       1063    39 -109.094831 -109.094679    0.000152   1.354    0.00010    0.00004
       1064    42 -109.094832 -109.094694    0.000138   1.354    0.00009    0.00003
       1065    42 -109.094832 -109.094709    0.000123   1.354    0.00009    0.00003
       1066    42 -109.094833 -109.094725    0.000107   1.354    0.00009    0.00003
       1067    42 -109.094832 -109.094742    0.000091   1.354    0.00009    0.00004

        ==> Orbital Optimization <==

            Orbital Optimization converged in   3 iterations 
            Total energy change: -2.081040e-08
            Final gradient norm: 3.121516e-05

       1068    57 -109.094863 -109.094068    0.000794   1.354    0.00010    0.00017
       1069    41 -109.094891 -109.094320    0.000571   1.354    0.00012    0.00012
       1070    37 -109.094908 -109.094537    0.000371   1.354    0.00011    0.00010
       1071    35 -109.094910 -109.094683    0.000227   1.354    0.00010    0.00010
       1072    37 -109.094903 -109.094768    0.000136   1.354    0.00009    0.00008
       1073    37 -109.094893 -109.094804    0.000089   1.354    0.00009    0.00006

        ==> Orbital Optimization <==

            Orbital Optimization converged in   3 iterations 
            Total energy change: -2.136653e-08
            Final gradient norm: 2.909642e-05

       1074    52 -109.094911 -109.094138    0.000773   1.354    0.00012    0.00015
       1075    36 -109.094928 -109.094381    0.000547   1.354    0.00014    0.00010
       1076    37 -109.094936 -109.094622    0.000314   1.354    0.00015    0.00006
       1077    40 -109.094928 -109.094820    0.000109   1.354    0.00013    0.00006
       1078    39 -109.094911 -109.094958    0.000047   1.354    0.00011    0.00008
       1079    40 -109.094891 -109.095033    0.000142   1.354    0.00010    0.00009
       1080    37 -109.094869 -109.095052    0.000183   1.354    0.00009    0.00010
       1081    38 -109.094849 -109.095043    0.000194   1.354    0.00009    0.00011
       1082    38 -109.094830 -109.095031    0.000201   1.354    0.00009    0.00011
       1083    37 -109.094813 -109.095029    0.000216   1.354    0.00010    0.00011
       1084    31 -109.094799 -109.095032    0.000233   1.354    0.00010    0.00011
       1085    32 -109.094788 -109.095032    0.000243   1.354    0.00010    0.00010
       1086    33 -109.094781 -109.095016    0.000235   1.354    0.00010    0.00009
       1087    35 -109.094776 -109.094980    0.000204   1.354    0.00010    0.00008
       1088    37 -109.094775 -109.094929    0.000153   1.354    0.00010    0.00008
       1089    38 -109.094777 -109.094872    0.000095   1.354    0.00010    0.00007

        ==> Orbital Optimization <==

            Orbital Optimization converged in   3 iterations 
            Total energy change: -2.829165e-08
            Final gradient norm: 1.961178e-05

       1090    57 -109.094746 -109.095607    0.000861   1.354    0.00018    0.00020
       1091    35 -109.094719 -109.095319    0.000600   1.354    0.00020    0.00013
       1092    37 -109.094706 -109.095058    0.000352   1.354    0.00019    0.00011
       1093    41 -109.094708 -109.094882    0.000174   1.354    0.00016    0.00011
       1094    42 -109.094719 -109.094778    0.000059   1.354    0.00015    0.00010
       1095    42 -109.094735 -109.094739    0.000005   1.354    0.00015    0.00008
       1096    42 -109.094751 -109.094727    0.000024   1.354    0.00014    0.00008
       1097    42 -109.094765 -109.094712    0.000053   1.354    0.00014    0.00010
       1098    39 -109.094778 -109.094670    0.000108   1.354    0.00013    0.00011
       1099    38 -109.094790 -109.094608    0.000182   1.354    0.00013    0.00011
       1100    35 -109.094801 -109.094540    0.000261   1.354    0.00012    0.00011
       1101    34 -109.094812 -109.094490    0.000322   1.354    0.00011    0.00011
       1102    35 -109.094822 -109.094473    0.000349   1.354    0.00010    0.00010
       1103    34 -109.094830 -109.094488    0.000341   1.354    0.00010    0.00010
       1104    35 -109.094835 -109.094528    0.000307   1.354    0.00010    0.00009
       1105    35 -109.094837 -109.094575    0.000263   1.354    0.00010    0.00009
       1106    35 -109.094837 -109.094616    0.000221   1.354    0.00010    0.00008
       1107    37 -109.094834 -109.094644    0.000190   1.354    0.00010    0.00008
       1108    38 -109.094829 -109.094655    0.000174   1.354    0.00011    0.00007
       1109    38 -109.094823 -109.094656    0.000168   1.354    0.00011    0.00007
       1110    38 -109.094818 -109.094650    0.000167   1.354    0.00011    0.00007
       1111    38 -109.094813 -109.094646    0.000167   1.354    0.00011    0.00007
       1112    38 -109.094810 -109.094644    0.000165   1.354    0.00011    0.00007
       1113    35 -109.094809 -109.094648    0.000161   1.354    0.00010    0.00007
       1114    33 -109.094809 -109.094655    0.000154   1.354    0.00010    0.00007
       1115    33 -109.094811 -109.094664    0.000147   1.354    0.00009    0.00007
       1116    33 -109.094814 -109.094676    0.000139   1.354    0.00008    0.00007
       1117    34 -109.094818 -109.094689    0.000129   1.354    0.00007    0.00007
       1118    33 -109.094822 -109.094705    0.000117   1.354    0.00007    0.00007
       1119    38 -109.094826 -109.094725    0.000101   1.354    0.00007    0.00007
       1120    38 -109.094829 -109.094746    0.000083   1.354    0.00007    0.00006

        ==> Orbital Optimization <==

            Orbital Optimization converged in   2 iterations 
            Total energy change: -1.901356e-09
            Final gradient norm: 1.400855e-05


      v2RDM iterations converged!

      v2RDM total spin [S(S+1)]:             0.000002
    * v2RDM total energy:           -109.094829037354



Properties will be evaluated at   0.000000,   0.000000,   0.000000 Bohr


Properties will be evaluated at   0.000000,   0.000000,   0.000000 Bohr

  Mulliken Charges: (a.u.)

   Center  Symbol    Alpha    Beta     Spin     Total
       1     N     3.50000  3.50000  0.00000  0.00000
       2     N     3.50000  3.50000  0.00000  0.00000

   Total alpha =  7.00000, Total beta =  7.00000, Total charge =  0.00000

 # Natural Orbital Occupation Numbers (alpha) #
 Irrep: 1
      1:  1.0000000
      2:  1.0000000
      3:  0.9906691
      4:  0.0000000
      5:  0.0000000
      6:  0.0000000
      7:  0.0000000

 Irrep: 2
      1:  0.0000000

 Irrep: 3
      1:  0.0327500
      2:  0.0000000
      3:  0.0000000

 Irrep: 4
      1:  0.0327500
      2:  0.0000000
      3:  0.0000000

 Irrep: 5
      1:  0.0000000

 Irrep: 6
      1:  1.0000000
      2:  1.0000000
      3:  0.0093410
      4:  0.0000000
      5:  0.0000000
      6:  0.0000000
      7:  0.0000000

 Irrep: 7
      1:  0.9672449
      2:  0.0000000
      3:  0.0000000

 Irrep: 8
      1:  0.9672450
      2:  0.0000000
      3:  0.0000000


 # Natural Orbital Occupation Numbers (beta) #
 Irrep: 1
      1:  1.0000000
      2:  1.0000000
      3:  0.9906179
      4:  0.0000000
      5:  0.0000000
      6:  0.0000000
      7:  0.0000000

 Irrep: 2
      1:  0.0000000

 Irrep: 3
      1:  0.0327309
      2:  0.0000000
      3:  0.0000000

 Irrep: 4
      1:  0.0327309
      2:  0.0000000
      3:  0.0000000

 Irrep: 5
      1:  0.0000000

 Irrep: 6
      1:  1.0000000
      2:  1.0000000
      3:  0.0094031
      4:  0.0000000
      5:  0.0000000
      6:  0.0000000
      7:  0.0000000

 Irrep: 7
      1:  0.9672585
      2:  0.0000000
      3:  0.0000000

 Irrep: 8
      1:  0.9672586
      2:  0.0000000
      3:  0.0000000


*** tstop() called on Eugenes-MacBook-Pro-2.local at Fri Aug 21 15:30:28 2015
Module time:
	user time   =       2.44 seconds =       0.04 minutes
	system time =       0.01 seconds =       0.00 minutes
	total time  =          3 seconds =       0.05 minutes
Total time:
	user time   =       2.76 seconds =       0.05 minutes
	system time =       0.03 seconds =       0.00 minutes
	total time  =          3 seconds =       0.05 minutes

*** PSI4 exiting successfully. Buy a developer a beer!
