    -----------------------------------------------------------------------
          Psi4: An Open-Source Ab Initio Electronic Structure Package
                              Psi4  Driver

                          Git: Rev {detached?}  

    J. M. Turney, A. C. Simmonett, R. M. Parrish, E. G. Hohenstein,
    F. A. Evangelista, J. T. Fermann, B. J. Mintz, L. A. Burns, J. J. Wilke,
    M. L. Abrams, N. J. Russ, M. L. Leininger, C. L. Janssen, E. T. Seidl,
    W. D. Allen, H. F. Schaefer, R. A. King, E. F. Valeev, C. D. Sherrill,
    and T. D. Crawford, WIREs Comput. Mol. Sci. 2, 556-565 (2012)
    (doi: 10.1002/wcms.93)

                         Additional Contributions by
    A. E. DePrince, M. Saitow, U. Bozkaya, A. Yu. Sokolov
    -----------------------------------------------------------------------


    Psi4 started on: Wed Aug 19 09:04:59 2015

    Process ID:  19883
    PSI4DATADIR: /apps/software/psi4public-master/install/share/psi
    Memory level set to 256.000 MB

  ==> Input File <==

--------------------------------------------------------------------------

# PYTHONPATH must include directory above plugin directory.
#     Define either externally or here, then import plugin.
sys.path.insert(0, '../..')
import v2rdm_casscf

molecule mol {
0 1
n
n 1 r
}

set {
  guess sad
  basis cc-pvdz
  scf_type df
  df_basis_scf cc-pvdz-jkfit 
  cholesky_tolerance 1.0e-12
  d_convergence 1e-10
  maxiter 500
  reference rhf
  frozen_docc  [ 2, 0, 0, 0, 0, 2, 0, 0 ]
  frozen_uocc  [ 4, 1, 2, 2, 1, 4, 2, 2 ]
  #frozen_docc  [  4 ]
  #frozen_uocc  [ 18 ]
}
set v2rdm_casscf {
  positivity dqg
  constrain_spin true
  constrain_d3   false
  spin_adapt_g2  false
  spin_adapt_q2  false
  r_convergence  1e-4
  e_convergence  1e-4
  cg_convergence 1e-6
  jacobi_write 1
  jacobi_nthread 8
  maxiter 20000
}

activate(mol)
mol.r = 0.5
energy('v2rdm-casscf')
mol.r = 1.1
energy('v2rdm-casscf')
--------------------------------------------------------------------------
/home/greg/v2rdm_casscf/v2rdm_casscf.so loaded.
Setting geometry variable r to 0.500000

*** tstart() called on ubuntu
*** at Wed Aug 19 09:04:59 2015


         ---------------------------------------------------------
                                   SCF
            by Justin Turney, Rob Parrish, and Andy Simmonett
                              RHF Reference
                        1 Threads,    256 MiB Core
         ---------------------------------------------------------

  ==> Geometry <==

    Molecular point group: d2h
    Full point group: D_inf_h

    Geometry (in Angstrom), charge = 0, multiplicity = 1:

       Center              X                  Y                   Z       
    ------------   -----------------  -----------------  -----------------
           N          0.000000000000     0.000000000000    -0.250000000000
           N          0.000000000000     0.000000000000     0.250000000000

  Running in d2h symmetry.

  Rotational constants: A = ************  B =      9.63082  C =      9.63082 [cm^-1]
  Rotational constants: A = ************  B = 288724.60708  C = 288724.60708 [MHz]
  Nuclear repulsion =   51.859366441820001

  Charge       = 0
  Multiplicity = 1
  Electrons    = 14
  Nalpha       = 7
  Nbeta        = 7

  ==> Algorithm <==

  SCF Algorithm Type is DF.
  DIIS enabled.
  MOM disabled.
  Fractional occupation disabled.
  Guess Type is SAD.
  Energy threshold   = 1.00e-08
  Density threshold  = 1.00e-10
  Integral threshold = 0.00e+00

  ==> Primary Basis <==

  Basis Set: CC-PVDZ
    Number of shells: 12
    Number of basis function: 28
    Number of Cartesian functions: 30
    Spherical Harmonics?: true
    Max angular momentum: 2

  ==> Pre-Iterations <==

   -------------------------------------------------------
    Irrep   Nso     Nmo     Nalpha   Nbeta   Ndocc  Nsocc
   -------------------------------------------------------
     Ag         7       7       0       0       0       0
     B1g        1       1       0       0       0       0
     B2g        3       3       0       0       0       0
     B3g        3       3       0       0       0       0
     Au         1       1       0       0       0       0
     B1u        7       7       0       0       0       0
     B2u        3       3       0       0       0       0
     B3u        3       3       0       0       0       0
   -------------------------------------------------------
    Total      28      28       7       7       7       0
   -------------------------------------------------------

 OEINTS: Overlap, kinetic, potential, dipole, and quadrupole integrals
         stored in file 35.

  ==> Integral Setup <==

  ==> DFJK: Density-Fitted J/K Matrices <==

    J tasked:                  Yes
    K tasked:                  Yes
    wK tasked:                  No
    OpenMP threads:              1
    Integrals threads:           1
    Memory (MB):               183
    Algorithm:                Core
    Integral Cache:           SAVE
    Schwarz Cutoff:          1E-12
    Fitting Condition:       1E-12

   => Auxiliary Basis Set <=

  Basis Set: CC-PVDZ-JKFIT
    Number of shells: 48
    Number of basis function: 140
    Number of Cartesian functions: 162
    Spherical Harmonics?: true
    Max angular momentum: 3

  Minimum eigenvalue in the overlap matrix is 1.5735752976E-04.
  Using Symmetric Orthogonalization.
  SCF Guess: Superposition of Atomic Densities via on-the-fly atomic UHF.

  ==> Iterations <==

                           Total Energy        Delta E     RMS |[F,P]|

   @DF-RHF iter   0:  -108.43300160575647   -1.08433e+02   6.40175e-01 
   @DF-RHF iter   1:  -102.97596888747357    5.45703e+00   3.61535e-02 
   @DF-RHF iter   2:  -103.03910400743167   -6.31351e-02   8.04210e-03 DIIS
   @DF-RHF iter   3:  -103.04274607531816   -3.64207e-03   1.69846e-03 DIIS
   @DF-RHF iter   4:  -103.04303501400425   -2.88939e-04   1.63294e-04 DIIS
   @DF-RHF iter   5:  -103.04303794669987   -2.93270e-06   2.21403e-05 DIIS
   @DF-RHF iter   6:  -103.04303799619602   -4.94962e-08   1.69559e-06 DIIS
   @DF-RHF iter   7:  -103.04303799648277   -2.86747e-10   1.89839e-07 DIIS
   @DF-RHF iter   8:  -103.04303799648598   -3.21165e-12   9.16442e-09 DIIS
   @DF-RHF iter   9:  -103.04303799648592    5.68434e-14   6.29584e-10 DIIS
   @DF-RHF iter  10:  -103.04303799648595   -2.84217e-14   6.29241e-11 DIIS

  ==> Post-Iterations <==

    Orbital Energies (a.u.)
    -----------------------

    Doubly Occupied:                                                      

       1Ag   -16.484254     1B1u  -15.786020     2Ag    -1.444372  
       1B3u   -1.176546     1B2u   -1.176546     2B1u   -0.543651  
       3Ag    -0.524270  

    Virtual:                                                              

       1B3g    0.538269     1B2g    0.538269     2B3u    0.594786  
       2B2u    0.594786     3B1u    0.613975     4Ag     0.726421  
       5Ag     1.055419     2B3g    1.450824     2B2g    1.450824  
       1B1g    1.682749     6Ag     1.682749     4B1u    1.789560  
       3B3u    2.801496     3B2u    2.801496     5B1u    2.816576  
       1Au     2.841413     6B1u    2.841413     7Ag     3.149107  
       3B2g    4.716661     3B3g    4.716661     7B1u   13.525888  

    Final Occupation by Irrep:
             Ag   B1g   B2g   B3g    Au   B1u   B2u   B3u 
    DOCC [     3,    0,    0,    0,    0,    2,    1,    1 ]

  Energy converged.

  @DF-RHF Final Energy:  -103.04303799648595

   => Energetics <=

    Nuclear Repulsion Energy =             51.8593664418200007
    One-Electron Energy =                -235.5334919573157038
    Two-Electron Energy =                  80.6310875190097818
    DFT Exchange-Correlation Energy =       0.0000000000000000
    Empirical Dispersion Energy =           0.0000000000000000
    PCM Polarization Energy =               0.0000000000000000
    EFP Energy =                            0.0000000000000000
    Total Energy =                       -103.0430379964859071

    Alert: EFP and PCM quantities not currently incorporated into SCF psivars.

Properties will be evaluated at   0.000000,   0.000000,   0.000000 Bohr
  ==> Properties <==


Properties computed using the SCF density matrix

  Nuclear Dipole Moment: (a.u.)
     X:     0.0000      Y:     0.0000      Z:     0.0000

  Electronic Dipole Moment: (a.u.)
     X:     0.0000      Y:     0.0000      Z:     0.0000

  Dipole Moment: (a.u.)
     X:     0.0000      Y:     0.0000      Z:     0.0000     Total:     0.0000

  Dipole Moment: (Debye)
     X:     0.0000      Y:     0.0000      Z:     0.0000     Total:     0.0000


  Saving occupied orbitals to File 180.

*** tstop() called on ubuntu at Wed Aug 19 09:05:00 2015
Module time:
	user time   =       0.49 seconds =       0.01 minutes
	system time =       0.01 seconds =       0.00 minutes
	total time  =          1 seconds =       0.02 minutes
Total time:
	user time   =       0.49 seconds =       0.01 minutes
	system time =       0.01 seconds =       0.00 minutes
	total time  =          1 seconds =       0.02 minutes
Reading options from the V2RDM_CASSCF block
Calling plugin v2rdm_casscf.so.

*** tstart() called on ubuntu
*** at Wed Aug 19 09:05:00 2015



        *******************************************************
        *                                                     *
        *    v-2RDM                                           *
        *                                                     *
        *    Ground-state variational 2-RDM optimization      *
        *    using a boundary-point semidefinite solver       *
        *                                                     *
        *    Eugene DePrince                                  *
        *                                                     *
        *******************************************************

  ==> Input parameters <==

        Freeze core orbitals?                 yes
        Number of frozen core orbitals:         4
        Number of active occupied orbitals:     3
        Number of active virtual orbitals:      3
        Number of frozen virtual orbitals:     18
        r_convergence:                  1.000e-04
        e_convergence:                  1.000e-04
        cg_convergence:                 1.000e-06
        maxiter:                            20000
        cg_maxiter:                         10000

  ==> Memory requirements <==

        D2:                          0.00 mb
        Q2:                          0.00 mb
        G2:                          0.01 mb

        Total number of variables:           1500
        Total number of constraints:         1282
        Total memory requirements:        0.52 mb

    ==> Transform three-electron integrals <==


        Time for integral transformation:     0.07 s


    reference energy:        -103.043037996486
    frozen core energy:      -138.046953669421
    initial 2-RDM energy:     -73.006571675042

      oiter iiter        E(p)        E(d)      E gap)      mu     eps(p)     eps(d)
          0    66 -113.943855  144.410188  258.354044   1.000   50.73890   72.62458
          1    40  -82.915278 -268.304993  185.389715   1.000    9.54647   30.76578
          2    47 -110.284765 -113.262884    2.978119   1.000   13.99226    6.56349
          3    39  -97.935080 -103.538230    5.603150   1.000    6.27789    3.71702
          4    42 -101.742784 -102.025463    0.282679   1.000    3.34091    2.97679
          5    42  -98.741126  -99.771109    1.029983   1.000    1.77464    2.12884
          6    35 -101.066887  -98.946709    2.120178   1.000    1.27013    1.54993
          7    38 -100.449261  -97.696995    2.752266   1.000    0.81494    1.45582
          8    37 -101.368352 -100.010661    1.357691   1.000    0.58995    0.87817
          9    42 -101.052243 -100.255609    0.796635   1.000    0.24490    0.67622
         10    42 -101.430744 -100.231764    1.198980   1.000    0.22683    0.53720
         11    38 -101.464563  -99.905804    1.558758   1.000    0.19724    0.45883
         12    35 -101.745234  -99.927326    1.817908   1.000    0.16162    0.42008
         13    41 -101.845299 -100.140915    1.704384   1.000    0.17658    0.38927
         14    40 -101.990967 -100.408332    1.582635   1.000    0.15332    0.37358
         15    40 -102.066374 -100.529280    1.537093   1.000    0.14248    0.36029
         16    37 -102.181091 -100.561764    1.619326   1.000    0.15559    0.34702
         17    40 -102.273682 -100.624706    1.648976   1.000    0.16527    0.33610
         18    33 -102.377632 -100.694156    1.683475   1.000    0.16964    0.32794
         19    37 -102.467016 -100.835945    1.631070   1.000    0.16211    0.31749
         20    36 -102.546285 -101.032710    1.513575   1.000    0.16847    0.29547
         21    40 -102.599597 -101.368541    1.231057   1.000    0.19955    0.25472
         22    41 -102.630019 -101.864991    0.765028   1.000    0.22710    0.20316
         23    41 -102.646120 -102.330922    0.315198   1.000    0.20868    0.17555
         24    38 -102.654194 -102.606149    0.048045   1.000    0.15927    0.17759
         25    32 -102.658968 -102.659262    0.000294   1.000    0.11574    0.17789
         26    38 -102.670082 -102.553203    0.116879   1.000    0.09711    0.16937
         27    41 -102.686079 -102.335501    0.350578   1.000    0.09481    0.15990
         28    41 -102.711698 -102.102839    0.608859   1.000    0.08969    0.15474
         29    38 -102.741151 -101.946474    0.794677   1.000    0.08185    0.15185
         30    32 -102.769761 -101.891940    0.877821   1.000    0.07588    0.15005
         31    38 -102.794314 -101.913107    0.881208   1.000    0.06939    0.14856
         32    38 -102.815590 -101.994644    0.820946   1.000    0.06100    0.14677
         33    38 -102.833665 -102.103853    0.729812   1.000    0.06526    0.14345
         34    39 -102.847200 -102.253402    0.593798   1.000    0.08199    0.13766
         35    34 -102.853374 -102.395552    0.457821   1.000    0.08357    0.13180
         36    37 -102.856503 -102.453600    0.402903   1.000    0.07090    0.12840
         37    38 -102.865939 -102.402135    0.463804   1.000    0.05986    0.12698
         38    38 -102.884185 -102.307177    0.577008   1.000    0.04758    0.12740
         39    34 -102.906954 -102.232132    0.674822   1.000    0.02997    0.12822
         40    32 -102.931050 -102.205047    0.726002   1.000    0.01948    0.12773
         41    41 -102.952520 -102.226273    0.726247   1.000    0.02654    0.12592
         42    41 -102.969695 -102.269578    0.700117   1.000    0.03112    0.12448
         43    40 -102.982924 -102.306416    0.676508   1.000    0.02764    0.12436
         44    38 -102.994382 -102.318924    0.675458   1.000    0.01972    0.12488
         45    31 -103.006119 -102.306829    0.699290   1.000    0.01349    0.12511
         46    38 -103.019117 -102.282417    0.736700   1.000    0.01374    0.12485
         47    40 -103.034231 -102.259942    0.774289   1.000    0.01707    0.12432
         48    41 -103.048014 -102.251212    0.796802   1.000    0.03709    0.11841
         49    35 -103.068401 -102.336055    0.732346   1.000    0.11774    0.08964
         50    41 -103.098521 -102.728580    0.369941   1.000    0.15259    0.03658
         51    47 -103.095532 -103.197488    0.101955   1.000    0.12759    0.03856
         52    42 -103.075249 -103.498915    0.423666   1.000    0.06861    0.05402
         53    38 -103.049200 -103.563826    0.514626   1.000    0.02663    0.05207
         54    41 -103.028300 -103.428080    0.399780   1.000    0.06029    0.03894
         55    41 -103.018813 -103.186583    0.167770   1.000    0.07712    0.02025
         56    42 -103.023087 -102.950838    0.072248   1.000    0.06431    0.01359
         57    46 -103.036139 -102.805618    0.230521   1.000    0.03313    0.02468
         58    32 -103.051348 -102.785534    0.265815   1.000    0.01581    0.02681
         59    41 -103.061145 -102.863161    0.197984   1.000    0.03508    0.01957
         60    41 -103.064680 -102.988552    0.076129   1.000    0.04280    0.00726
         61    47 -103.061535 -103.108202    0.046667   1.000    0.03507    0.00682
         62    47 -103.054330 -103.179122    0.124792   1.000    0.01934    0.01337
         63    32 -103.046919 -103.186276    0.139358   1.000    0.01261    0.01398
         64    40 -103.042106 -103.142463    0.100357   1.000    0.02031    0.00973
         65    41 -103.040848 -103.074744    0.033896   1.000    0.02315    0.00406
         66    47 -103.042926 -103.013343    0.029583   1.000    0.01893    0.00471
         67    41 -103.046661 -102.979264    0.067397   1.000    0.01246    0.00748
         68    31 -103.050376 -102.978594    0.071782   1.000    0.01134    0.00751
         69    41 -103.052633 -103.003084    0.049550   1.000    0.01444    0.00533
         70    41 -103.053179 -103.038039    0.015140   1.000    0.01533    0.00284
         71    47 -103.052188 -103.069194    0.017006   1.000    0.01318    0.00327
         72    42 -103.050035 -103.086834    0.036799   1.000    0.01037    0.00452
         73    35 -103.047973 -103.087551    0.039577   1.000    0.00976    0.00451
         74    41 -103.046576 -103.074646    0.028070   1.000    0.01082    0.00340
         75    41 -103.046117 -103.055560    0.009443   1.000    0.01111    0.00223
         76    41 -103.045936 -103.038299    0.007637   1.000    0.00953    0.00249
         77    41 -103.047233 -103.029282    0.017951   1.000    0.00878    0.00277
         78    38 -103.048215 -103.029113    0.019102   1.000    0.00877    0.00271
         79    41 -103.049237 -103.034925    0.014312   1.000    0.00899    0.00228
         80    43 -103.049505 -103.043875    0.005631   1.000    0.00904    0.00179
         81    43 -103.049313 -103.052261    0.002948   1.000    0.00872    0.00174
         82    43 -103.048747 -103.058137    0.009391   1.000    0.00828    0.00188
         83    41 -103.048037 -103.059631    0.011594   1.000    0.00795    0.00195
         84    41 -103.047556 -103.057466    0.009910   1.000    0.00786    0.00174
         85    41 -103.047257 -103.052741    0.005485   1.000    0.00781    0.00146
         86    42 -103.047319 -103.047440    0.000121   1.000    0.00770    0.00135
         87    41 -103.047599 -103.043448    0.004150   1.000    0.00755    0.00138
         88    41 -103.047993 -103.041856    0.006137   1.000    0.00745    0.00141
         89    41 -103.048325 -103.042647    0.005678   1.000    0.00742    0.00134
         90    41 -103.048514 -103.045070    0.003444   1.000    0.00739    0.00122
         91    41 -103.048523 -103.047993    0.000530   1.000    0.00732    0.00114
         92    41 -103.048994 -103.050375    0.001381   1.000    0.00694    0.00117
         93    41 -103.049827 -103.051953    0.002126   1.000    0.00626    0.00122
         94    41 -103.049649 -103.052503    0.002854   1.000    0.00611    0.00116
         95    42 -103.050225 -103.051293    0.001068   1.000    0.00567    0.00111
         96    42 -103.050148 -103.049810    0.000339   1.000    0.00560    0.00100
         97    43 -103.050152 -103.047862    0.002291   1.000    0.00554    0.00095
         98    47 -103.050132 -103.046383    0.003749   1.000    0.00548    0.00100
         99    43 -103.050192 -103.045870    0.004321   1.000    0.00545    0.00095
        100    42 -103.050163 -103.046209    0.003954   1.000    0.00541    0.00093
        101    41 -103.050201 -103.047091    0.003110   1.000    0.00537    0.00090
        102    42 -103.050176 -103.048210    0.001966   1.000    0.00529    0.00092
        103    41 -103.050203 -103.049231    0.000972   1.000    0.00521    0.00086
        104    42 -103.050176 -103.049910    0.000266   1.000    0.00513    0.00085
        105    47 -103.050154 -103.049950    0.000204   1.000    0.00504    0.00087
        106    47 -103.050130 -103.049603    0.000526   1.000    0.00494    0.00085
        107    47 -103.050110 -103.049211    0.000899   1.000    0.00481    0.00089
        108    45 -103.050098 -103.049031    0.001068   1.000    0.00461    0.00097
        109    47 -103.050066 -103.049362    0.000705   1.000    0.00453    0.00086
        110    47 -103.050038 -103.049803    0.000235   1.000    0.00449    0.00073
        111    47 -103.050030 -103.049469    0.000561   1.000    0.00450    0.00069
        112    51 -103.050013 -103.048541    0.001472   1.000    0.00449    0.00067
        113    47 -103.049978 -103.047548    0.002431   1.000    0.00443    0.00085
        114    47 -103.049922 -103.047315    0.002607   1.000    0.00436    0.00069
        115    51 -103.049960 -103.046814    0.003146   1.000    0.00428    0.00064
        116    47 -103.049928 -103.047161    0.002767   1.000    0.00417    0.00061
        117    47 -103.049929 -103.047498    0.002431   1.000    0.00412    0.00062
        118    47 -103.049886 -103.048206    0.001680   1.000    0.00410    0.00057
        119    47 -103.049893 -103.048184    0.001709   1.000    0.00410    0.00055
        120    47 -103.049844 -103.048268    0.001576   1.000    0.00409    0.00054
        121    47 -103.049831 -103.047969    0.001861   1.000    0.00407    0.00053
        122    46 -103.049820 -103.047791    0.002029   1.000    0.00404    0.00056
        123    47 -103.049832 -103.047740    0.002092   1.000    0.00402    0.00060
        124    47 -103.049761 -103.048066    0.001695   1.000    0.00398    0.00053
        125    47 -103.049788 -103.047743    0.002045   1.000    0.00397    0.00050
        126    52 -103.049738 -103.047803    0.001935   1.000    0.00394    0.00049
        127    53 -103.049749 -103.047613    0.002135   1.000    0.00393    0.00048
        128    53 -103.049726 -103.047576    0.002150   1.000    0.00389    0.00058
        129    47 -103.049857 -103.047918    0.001939   1.000    0.00380    0.00051
        130    53 -103.049925 -103.047720    0.002205   1.000    0.00380    0.00047
        131    48 -103.049852 -103.047849    0.002003   1.000    0.00378    0.00046
        132    47 -103.049803 -103.047589    0.002214   1.000    0.00372    0.00049
        133    47 -103.049777 -103.047678    0.002099   1.000    0.00371    0.00045
        134    53 -103.049762 -103.047637    0.002125   1.000    0.00369    0.00043
        135    53 -103.049535 -103.047653    0.001881   1.000    0.00373    0.00054
        136    47 -103.049533 -103.047898    0.001636   1.000    0.00374    0.00047
        137    47 -103.049508 -103.048132    0.001376   1.000    0.00373    0.00043
        138    54 -103.049507 -103.048135    0.001372   1.000    0.00370    0.00042
        139    54 -103.049477 -103.048059    0.001418   1.000    0.00368    0.00041
        140    54 -103.049456 -103.047901    0.001555   1.000    0.00366    0.00040
        141    54 -103.049454 -103.047672    0.001782   1.000    0.00365    0.00039
        142    54 -103.049754 -103.047396    0.002358   1.000    0.00357    0.00045
        143    47 -103.049555 -103.047457    0.002098   1.000    0.00356    0.00043
        144    48 -103.049686 -103.047197    0.002490   1.000    0.00355    0.00039
        145    53 -103.049591 -103.047243    0.002348   1.000    0.00352    0.00038
        146    54 -103.049629 -103.047175    0.002454   1.000    0.00350    0.00037
        147    53 -103.049511 -103.047250    0.002261   1.000    0.00346    0.00053
        148    42 -103.049577 -103.047696    0.001881   1.000    0.00348    0.00043
        149    42 -103.049545 -103.048190    0.001355   1.000    0.00347    0.00039
        150    42 -103.049547 -103.048464    0.001083   1.000    0.00348    0.00052
        151    42 -103.049555 -103.048678    0.000877   1.000    0.00351    0.00042
        152    42 -103.049521 -103.048554    0.000968   1.000    0.00352    0.00039
        153    42 -103.049523 -103.048238    0.001285   1.000    0.00350    0.00050
        154    41 -103.049445 -103.048164    0.001281   1.000    0.00356    0.00044
        155    47 -103.049457 -103.048118    0.001339   1.000    0.00354    0.00036
        156    48 -103.049416 -103.047859    0.001556   1.000    0.00357    0.00033
        157    47 -103.049423 -103.047482    0.001941   1.000    0.00356    0.00031
        158    47 -103.049408 -103.047095    0.002313   1.000    0.00354    0.00035
        159    48 -103.049426 -103.046901    0.002525   1.000    0.00350    0.00035
        160    46 -103.049355 -103.046935    0.002419   1.000    0.00326    0.00058
        161    47 -103.049406 -103.047512    0.001894   1.000    0.00323    0.00050
        162    41 -103.049411 -103.048252    0.001159   1.000    0.00321    0.00048
        163    41 -103.049428 -103.048939    0.000489   1.000    0.00329    0.00039
        164    46 -103.049356 -103.049192    0.000164   1.000    0.00322    0.00041
        165    47 -103.049292 -103.049255    0.000036   1.000    0.00315    0.00050
        166    42 -103.049262 -103.049352    0.000090   1.000    0.00315    0.00055
        167    40 -103.049204 -103.049351    0.000147   1.000    0.00317    0.00041
        168    43 -103.049190 -103.049049    0.000141   1.000    0.00326    0.00034
        169    47 -103.049186 -103.048444    0.000742   1.000    0.00331    0.00036
        170    46 -103.049221 -103.047924    0.001297   1.000    0.00333    0.00045
        171    41 -103.049217 -103.047596    0.001621   1.000    0.00334    0.00033
        172    47 -103.049207 -103.047181    0.002026   1.000    0.00333    0.00029
        173    45 -103.049193 -103.046816    0.002377   1.000    0.00330    0.00027
        174    46 -103.049187 -103.046452    0.002735   1.000    0.00326    0.00025
        175    47 -103.049192 -103.046174    0.003018   1.000    0.00322    0.00029
        176    46 -103.049182 -103.046163    0.003019   1.000    0.00300    0.00029
        177    47 -103.049104 -103.046338    0.002766   1.000    0.00275    0.00032
        178    47 -103.049116 -103.046710    0.002406   1.000    0.00276    0.00026
        179    47 -103.049080 -103.047091    0.001989   1.000    0.00270    0.00022
        180    47 -103.049084 -103.047443    0.001641   1.000    0.00273    0.00021
        181    47 -103.049028 -103.047703    0.001324   1.000    0.00259    0.00024
        182    49 -103.048972 -103.047927    0.001046   1.000    0.00249    0.00029
        183    47 -103.048979 -103.048132    0.000847   1.000    0.00253    0.00026
        184    47 -103.048949 -103.048201    0.000748   1.000    0.00252    0.00024
        185    47 -103.048944 -103.048168    0.000776   1.000    0.00256    0.00023
        186    47 -103.048925 -103.048009    0.000916   1.000    0.00257    0.00021
        187    47 -103.048918 -103.047756    0.001162   1.000    0.00259    0.00020
        188    47 -103.048907 -103.047449    0.001458   1.000    0.00259    0.00019
        189    47 -103.048901 -103.047142    0.001759   1.000    0.00259    0.00019
        190    47 -103.048895 -103.046871    0.002025   1.000    0.00257    0.00019
        191    48 -103.048893 -103.046660    0.002233   1.000    0.00254    0.00019
        192    49 -103.048893 -103.046523    0.002370   1.000    0.00251    0.00020
        193    49 -103.048894 -103.046467    0.002427   1.000    0.00249    0.00020
        194    49 -103.048896 -103.046493    0.002402   1.000    0.00246    0.00020
        195    49 -103.048896 -103.046594    0.002302   1.000    0.00244    0.00019
        196    49 -103.048895 -103.046754    0.002141   1.000    0.00243    0.00018
        197    49 -103.048891 -103.046950    0.001941   1.000    0.00242    0.00018
        198    49 -103.048884 -103.047154    0.001730   1.000    0.00241    0.00018
        199    49 -103.048876 -103.047343    0.001533   1.000    0.00241    0.00018

        ==> Orbital Optimization <==

            Jacobi Optimization did not converge.
            Total energy change: -2.741717e-02

        200    48 -103.076283 -101.671142    1.405141  13.490    0.00241    0.00018
        201    92 -103.091073 -100.196922    2.894151  13.490    0.03228    0.40085
        202    61 -103.101868 -101.621475    1.480392  13.490    0.04003    0.27458
        203    58 -103.101831 -103.306155    0.204324  13.490    0.03714    0.20306
        204    53 -103.097429 -104.533014    1.435584  13.490    0.02304    0.24076
        205    54 -103.090529 -104.963181    1.872652  13.490    0.00960    0.24585
        206    61 -103.085598 -104.611682    1.526084  13.490    0.01575    0.21240
        207    59 -103.084464 -103.784907    0.700443  13.490    0.02199    0.15942
        208    59 -103.087252 -102.893006    0.194247  13.490    0.02057    0.13225
        209    55 -103.089654 -102.346566    0.743088  13.490    0.01351    0.15160
        210    53 -103.098334 -102.450839    0.647494  13.490    0.00948    0.13400
        211    61 -103.098848 -102.704908    0.393940  13.490    0.01171    0.10908
        212    53 -103.102144 -103.007138    0.095006  13.490    0.01175    0.09140
        213    54 -103.102168 -103.275521    0.173353  13.490    0.01109    0.07924
        214    53 -103.102428 -103.457211    0.354783  13.490    0.00957    0.07726
        215    49 -103.100686 -103.554737    0.454052  13.490    0.00936    0.07842
        216    38 -103.101641 -103.581489    0.479848  13.490    0.00815    0.08080
        217    53 -103.101471 -103.592360    0.490889  13.490    0.00849    0.08818
        218    47 -103.097117 -103.626706    0.529588  13.490    0.00613    0.09168
        219    43 -103.094719 -103.668985    0.574266  13.490    0.00509    0.09526
        220    54 -103.092703 -103.741477    0.648773  13.490    0.00504    0.09086
        221    55 -103.090559 -103.685359    0.594800  13.490    0.00596    0.08515
        222    55 -103.088778 -103.621227    0.532449  13.490    0.00679    0.08292
        223    53 -103.087278 -103.536435    0.449157  13.490    0.00748    0.07227
        224    54 -103.085607 -103.432573    0.346966  13.490    0.00759    0.06164
        225    54 -103.084601 -103.328189    0.243588  13.490    0.00759    0.05230
        226    55 -103.083958 -103.232539    0.148581  13.490    0.00699    0.04421
        227    54 -103.084255 -103.132231    0.047976  13.490    0.00688    0.03960
        228    54 -103.085002 -103.027734    0.057267  13.490    0.00658    0.04063
        229    56 -103.086173 -102.928446    0.157726  13.490    0.00608    0.04468
        230    55 -103.087489 -102.847791    0.239698  13.490    0.00520    0.04891
        231    54 -103.088881 -102.795588    0.293293  13.490    0.00412    0.05207
        232    53 -103.090306 -102.778262    0.312044  13.490    0.00321    0.05301
        233    47 -103.091745 -102.790273    0.301472  13.490    0.00282    0.05133
        234    53 -103.092883 -102.822965    0.269918  13.490    0.00277    0.04753
        235    59 -103.093710 -102.876695    0.217014  13.490    0.00322    0.04221
        236    55 -103.094627 -102.941275    0.153351  13.490    0.00351    0.03523
        237    53 -103.095192 -103.000306    0.094886  13.490    0.00378    0.02807
        238    52 -103.095516 -103.060857    0.034658  13.490    0.00386    0.02228
        239    53 -103.095463 -103.120165    0.024703  13.490    0.00383    0.02120
        240    53 -103.095046 -103.184165    0.089119  13.490    0.00366    0.02264
        241    52 -103.094330 -103.241102    0.146772  13.490    0.00349    0.02690
        242    53 -103.093530 -103.293278    0.199748  13.490    0.00313    0.03112
        243    54 -103.092415 -103.326294    0.233879  13.490    0.00283    0.03438
        244    53 -103.091029 -103.342298    0.251269  13.490    0.00259    0.03612
        245    52 -103.089629 -103.345561    0.255932  13.490    0.00245    0.03644
        246    53 -103.088726 -103.337575    0.248848  13.490    0.00282    0.03511
        247    53 -103.087872 -103.308145    0.220273  13.490    0.00327    0.03187
        248    54 -103.087260 -103.265173    0.177913  13.490    0.00369    0.02750
        249    54 -103.086826 -103.216971    0.130146  13.490    0.00390    0.02288
        250    54 -103.086618 -103.168500    0.081883  13.490    0.00398    0.01822
        251    54 -103.086336 -103.120255    0.033919  13.490    0.00363    0.01503
        252    54 -103.086377 -103.078646    0.007731  13.490    0.00346    0.01341
        253    54 -103.086345 -103.038680    0.047665  13.490    0.00313    0.01577
        254    54 -103.086859 -103.006916    0.079943  13.490    0.00297    0.01783
        255    53 -103.087256 -102.976125    0.111131  13.490    0.00270    0.02074
        256    54 -103.087888 -102.958769    0.129120  13.490    0.00242    0.02238
        257    52 -103.088524 -102.948168    0.140355  13.490    0.00220    0.02381
        258    53 -103.089232 -102.953416    0.135816  13.490    0.00211    0.02335
        259    53 -103.089836 -102.961040    0.128795  13.490    0.00209    0.02158
        260    53 -103.090382 -102.977351    0.113031  13.490    0.00210    0.01950
        261    53 -103.090749 -103.001165    0.089584  13.490    0.00216    0.01596
        262    52 -103.090948 -103.024224    0.066723  13.490    0.00221    0.01295
        263    53 -103.090995 -103.051230    0.039765  13.490    0.00226    0.01105
        264    53 -103.090934 -103.083021    0.007913  13.490    0.00229    0.00965
        265    54 -103.090785 -103.112201    0.021416  13.490    0.00229    0.00959
        266    53 -103.090581 -103.137607    0.047027  13.490    0.00225    0.01094
        267    52 -103.090298 -103.157898    0.067601  13.490    0.00219    0.01278
        268    54 -103.089954 -103.173188    0.083234  13.490    0.00214    0.01444
        269    54 -103.089553 -103.182997    0.093444  13.490    0.00212    0.01564
        270    54 -103.089121 -103.187499    0.098378  13.490    0.00215    0.01626
        271    54 -103.088504 -103.186623    0.098119  13.490    0.00210    0.01640
        272    54 -103.088029 -103.182586    0.094556  13.490    0.00217    0.01576
        273    54 -103.087604 -103.173347    0.085743  13.490    0.00224    0.01449
        274    53 -103.086979 -103.160337    0.073358  13.490    0.00231    0.01328
        275    55 -103.086569 -103.146588    0.060020  13.490    0.00222    0.01190
        276    55 -103.086361 -103.130864    0.044503  13.490    0.00220    0.01152
        277    53 -103.086195 -103.116392    0.030198  13.490    0.00215    0.00972
        278    54 -103.086163 -103.095465    0.009301  13.490    0.00216    0.00836
        279    54 -103.086157 -103.076947    0.009210  13.490    0.00213    0.00771
        280    54 -103.086221 -103.058956    0.027266  13.490    0.00209    0.00786
        281    54 -103.086340 -103.042894    0.043446  13.490    0.00203    0.00876
        282    54 -103.086523 -103.029464    0.057059  13.490    0.00196    0.00981
        283    54 -103.086755 -103.019305    0.067450  13.490    0.00189    0.01060
        284    54 -103.087034 -103.013118    0.073916  13.490    0.00184    0.01130
        285    53 -103.087310 -103.013190    0.074120  13.490    0.00179    0.01169
        286    54 -103.087560 -103.017303    0.070257  13.490    0.00172    0.01129
        287    52 -103.087796 -103.022126    0.065670  13.490    0.00172    0.01074
        288    54 -103.088051 -103.029865    0.058186  13.490    0.00174    0.00987
        289    53 -103.088255 -103.038637    0.049618  13.490    0.00178    0.00912
        290    56 -103.088403 -103.050702    0.037701  13.490    0.00183    0.00779
        291    56 -103.088499 -103.061256    0.027243  13.490    0.00184    0.00665
        292    55 -103.088526 -103.073713    0.014813  13.490    0.00184    0.00597
        293    53 -103.088492 -103.085352    0.003140  13.490    0.00182    0.00590
        294    56 -103.088394 -103.097132    0.008738  13.490    0.00180    0.00632
        295    53 -103.088248 -103.107594    0.019346  13.490    0.00178    0.00699
        296    56 -103.088059 -103.116685    0.028626  13.490    0.00176    0.00771
        297    54 -103.087838 -103.123491    0.035653  13.490    0.00174    0.00827
        298    53 -103.087597 -103.127874    0.040276  13.490    0.00173    0.00858
        299    56 -103.087350 -103.129499    0.042149  13.490    0.00172    0.00867
        300    54 -103.087116 -103.129250    0.042134  13.490    0.00176    0.00896
        301    60 -103.086924 -103.128401    0.041477  13.490    0.00184    0.00840
        302    56 -103.086718 -103.123688    0.036970  13.490    0.00190    0.00782
        303    54 -103.086538 -103.117092    0.030554  13.490    0.00198    0.00706
        304    54 -103.086386 -103.108245    0.021859  13.490    0.00203    0.00619
        305    54 -103.086281 -103.098773    0.012492  13.490    0.00205    0.00555
        306    54 -103.086203 -103.089864    0.003661  13.490    0.00203    0.00480
        307    54 -103.086167 -103.080081    0.006087  13.490    0.00200    0.00456
        308    54 -103.086170 -103.071212    0.014958  13.490    0.00194    0.00474
        309    54 -103.086215 -103.062943    0.023272  13.490    0.00189    0.00516
        310    54 -103.086295 -103.055943    0.030353  13.490    0.00183    0.00564
        311    54 -103.086409 -103.050188    0.036221  13.490    0.00179    0.00607
        312    54 -103.086548 -103.045988    0.040559  13.490    0.00176    0.00642
        313    55 -103.086474 -103.043368    0.043107  13.490    0.00149    0.00708
        314    53 -103.086615 -103.044924    0.041692  13.490    0.00149    0.00696
        315    60 -103.086699 -103.046172    0.040527  13.490    0.00147    0.00683
        316    60 -103.086811 -103.049010    0.037801  13.490    0.00148    0.00651
        317    56 -103.086906 -103.052557    0.034348  13.490    0.00149    0.00602
        318    55 -103.087002 -103.057127    0.029875  13.490    0.00148    0.00568
        319    58 -103.087063 -103.063352    0.023711  13.490    0.00147    0.00534
        320    59 -103.087089 -103.070203    0.016885  13.490    0.00144    0.00589
        321    56 -103.087058 -103.078068    0.008990  13.490    0.00141    0.00554
        322    54 -103.086994 -103.083408    0.003586  13.490    0.00139    0.00545
        323    58 -103.086897 -103.089067    0.002171  13.490    0.00137    0.00542
        324    59 -103.086773 -103.093027    0.006253  13.490    0.00135    0.00534
        325    59 -103.086628 -103.096326    0.009698  13.490    0.00134    0.00522
        326    54 -103.086476 -103.098295    0.011819  13.490    0.00133    0.00507
        327    53 -103.086330 -103.099379    0.013049  13.490    0.00131    0.00494
        328    58 -103.086199 -103.099392    0.013193  13.490    0.00129    0.00484
        329    54 -103.086089 -103.098603    0.012515  13.490    0.00127    0.00523
        330    53 -103.086001 -103.098250    0.012249  13.490    0.00125    0.00511
        331    54 -103.085933 -103.097001    0.011068  13.490    0.00124    0.00521
        332    53 -103.085884 -103.096325    0.010442  13.490    0.00124    0.00508
        333    54 -103.085843 -103.094447    0.008604  13.490    0.00123    0.00492
        334    53 -103.085812 -103.093181    0.007369  13.490    0.00119    0.00566
        335    54 -103.085787 -103.095727    0.009940  13.490    0.00114    0.00610
        336    54 -103.085737 -103.098499    0.012762  13.490    0.00109    0.00731
        337    56 -103.085636 -103.102730    0.017094  13.490    0.00109    0.00636
        338    53 -103.085522 -103.103783    0.018261  13.490    0.00106    0.00582
        339    54 -103.085377 -103.103997    0.018619  13.490    0.00104    0.00580
        340    54 -103.085228 -103.102601    0.017373  13.490    0.00100    0.00742
        341    56 -103.085062 -103.104751    0.019689  13.490    0.00100    0.00736
        342    54 -103.084902 -103.104936    0.020034  13.490    0.00096    0.00742
        343    56 -103.084740 -103.107993    0.023253  13.490    0.00091    0.00704
        344    55 -103.084568 -103.107438    0.022870  13.490    0.00082    0.00698
        345    56 -103.084395 -103.106398    0.022003  13.490    0.00073    0.00690
        346    49 -103.084238 -103.103490    0.019252  13.490    0.00068    0.00652
        347    49 -103.084106 -103.100008    0.015902  13.490    0.00067    0.00578
        348    53 -103.084001 -103.096517    0.012516  13.490    0.00068    0.00481
        349    47 -103.083922 -103.093587    0.009665  13.490    0.00068    0.00393
        350    54 -103.083866 -103.090116    0.006249  13.490    0.00068    0.00329
        351    54 -103.083834 -103.086081    0.002246  13.490    0.00067    0.00295
        352    53 -103.083829 -103.081623    0.002206  13.490    0.00065    0.00297
        353    55 -103.083854 -103.077025    0.006829  13.490    0.00063    0.00319
        354    55 -103.083910 -103.072461    0.011450  13.490    0.00061    0.00344
        355    56 -103.083997 -103.068335    0.015662  13.490    0.00060    0.00366
        356    59 -103.084107 -103.065047    0.019060  13.490    0.00060    0.00379
        357    56 -103.084239 -103.062137    0.022102  13.490    0.00060    0.00390
        358    56 -103.084379 -103.060638    0.023741  13.490    0.00061    0.00397
        359    55 -103.084520 -103.060086    0.024434  13.490    0.00061    0.00391
        360    55 -103.084653 -103.060414    0.024239  13.490    0.00060    0.00391
        361    55 -103.084777 -103.062307    0.022470  13.490    0.00057    0.00443
        362    51 -103.084904 -103.066500    0.018404  13.490    0.00053    0.00403
        363    55 -103.084976 -103.069547    0.015428  13.490    0.00054    0.00345
        364    47 -103.085016 -103.073870    0.011146  13.490    0.00054    0.00300
        365    49 -103.084959 -103.077544    0.007415  13.490    0.00051    0.00291
        366    49 -103.084927 -103.081783    0.003144  13.490    0.00050    0.00268
        367    49 -103.084878 -103.085098    0.000221  13.490    0.00049    0.00261
        368    53 -103.084820 -103.087994    0.003173  13.490    0.00048    0.00256
        369    55 -103.084750 -103.090383    0.005633  13.490    0.00048    0.00249
        370    55 -103.084675 -103.092303    0.007629  13.490    0.00047    0.00244
        371    49 -103.084598 -103.094043    0.009445  13.490    0.00046    0.00245
        372    49 -103.084526 -103.095593    0.011067  13.490    0.00045    0.00248
        373    55 -103.084458 -103.096783    0.012325  13.490    0.00045    0.00253
        374    49 -103.084396 -103.097555    0.013160  13.490    0.00044    0.00257
        375    55 -103.084336 -103.097885    0.013549  13.490    0.00044    0.00263
        376    55 -103.084279 -103.097772    0.013492  13.490    0.00043    0.00268
        377    56 -103.084225 -103.097315    0.013091  13.490    0.00042    0.00271
        378    54 -103.084173 -103.096549    0.012376  13.490    0.00042    0.00269
        379    53 -103.084126 -103.095608    0.011482  13.490    0.00041    0.00262
        380    54 -103.084083 -103.094563    0.010480  13.490    0.00040    0.00250
        381    53 -103.084045 -103.093670    0.009625  13.490    0.00040    0.00234
        382    53 -103.084013 -103.092695    0.008683  13.490    0.00040    0.00215
        383    53 -103.083985 -103.091596    0.007611  13.490    0.00040    0.00192
        384    53 -103.083964 -103.090392    0.006428  13.490    0.00041    0.00166
        385    53 -103.083948 -103.089142    0.005194  13.490    0.00041    0.00136
        386    53 -103.083935 -103.087684    0.003750  13.490    0.00041    0.00108
        387    53 -103.083925 -103.085983    0.002059  13.490    0.00041    0.00090
        388    53 -103.083917 -103.084180    0.000263  13.490    0.00041    0.00086
        389    53 -103.083917 -103.082179    0.001738  13.490    0.00040    0.00095
        390    53 -103.083923 -103.080182    0.003741  13.490    0.00039    0.00111
        391    53 -103.083923 -103.078212    0.005711  13.490    0.00037    0.00131
        392    53 -103.083905 -103.076581    0.007324  13.490    0.00033    0.00159
        393    54 -103.083955 -103.075620    0.008335  13.490    0.00033    0.00168
        394    53 -103.083972 -103.074628    0.009345  13.490    0.00031    0.00176
        395    53 -103.084017 -103.074071    0.009946  13.490    0.00031    0.00182
        396    53 -103.084055 -103.073568    0.010487  13.490    0.00030    0.00186
        397    54 -103.084104 -103.073296    0.010808  13.490    0.00030    0.00186
        398    59 -103.084153 -103.073172    0.010982  13.490    0.00031    0.00182
        399    59 -103.084206 -103.073332    0.010874  13.490    0.00031    0.00177

        ==> Orbital Optimization <==

            Jacobi Optimization converged.
            Total energy change: -1.633593e-03

        400    55 -103.085891 -103.452910    0.367019   2.490    0.00031    0.00169
        401    80 -103.053207 -104.002415    0.949208   2.490    0.02969    0.12422
        402    47 -103.024008 -103.846725    0.822717   2.490    0.03638    0.09525
        403    41 -103.007450 -103.651334    0.643884   2.490    0.03863    0.07266
        404    41 -102.993770 -103.452764    0.458994   2.490    0.03642    0.06154
        405    38 -102.994126 -103.312481    0.318355   2.490    0.03503    0.05663
        406    37 -102.996616 -103.160321    0.163705   2.490    0.03183    0.05425
        407    40 -103.007551 -103.025973    0.018422   2.490    0.03153    0.05234
        408    36 -103.016368 -102.932935    0.083433   2.490    0.02765    0.05350
        409    35 -103.029648 -102.882198    0.147450   2.490    0.02578    0.05489
        410    36 -103.035800 -102.847790    0.188009   2.490    0.02342    0.05269
        411    42 -103.041066 -102.881409    0.159656   2.490    0.02272    0.04766
        412    41 -103.048649 -102.897420    0.151228   2.490    0.01957    0.04565
        413    37 -103.054932 -102.874939    0.179992   2.490    0.01827    0.04102
        414    37 -103.061074 -102.833968    0.227106   2.490    0.01559    0.03881
        415    41 -103.066514 -102.798605    0.267909   2.490    0.01105    0.04284
        416    36 -103.074916 -102.777497    0.297419   2.490    0.00759    0.04484
        417    38 -103.083205 -102.763416    0.319789   2.490    0.00579    0.04534
        418    41 -103.090339 -102.768667    0.321672   2.490    0.00606    0.04258
        419    42 -103.095799 -102.789289    0.306509   2.490    0.00824    0.03881
        420    43 -103.103507 -102.833829    0.269678   2.490    0.00921    0.03553
        421    40 -103.108642 -102.873769    0.234874   2.490    0.01128    0.02931
        422    41 -103.111184 -102.925798    0.185386   2.490    0.01359    0.02282
        423    42 -103.112848 -102.987243    0.125605   2.490    0.01544    0.01635
        424    41 -103.113510 -103.050407    0.063102   2.490    0.01603    0.00995
        425    42 -103.112950 -103.110047    0.002903   2.490    0.01497    0.00771
        426    46 -103.108422 -103.161743    0.053320   2.490    0.01508    0.01295
        427    41 -103.106433 -103.210325    0.103892   2.490    0.01120    0.01745
        428    41 -103.101792 -103.241429    0.139637   2.490    0.00921    0.02192
        429    41 -103.098964 -103.267025    0.168061   2.490    0.00519    0.02443
        430    37 -103.095246 -103.276473    0.181228   2.490    0.00404    0.02531
        431    41 -103.092058 -103.272556    0.180498   2.490    0.00605    0.02463
        432    41 -103.088555 -103.255348    0.166793   2.490    0.00830    0.02253
        433    42 -103.085509 -103.230255    0.144746   2.490    0.01002    0.01963
        434    42 -103.083577 -103.200108    0.116531   2.490    0.01143    0.01619
        435    41 -103.082339 -103.164725    0.082386   2.490    0.01207    0.01263
        436    39 -103.081719 -103.129348    0.047629   2.490    0.01199    0.00942
        437    42 -103.080880 -103.097922    0.017041   2.490    0.01093    0.00722
        438    42 -103.079868 -103.072143    0.007725   2.490    0.00892    0.00706
        439    41 -103.080197 -103.048025    0.032172   2.490    0.00751    0.00817
        440    42 -103.081046 -103.024630    0.056416   2.490    0.00593    0.01076
        441    42 -103.082573 -103.009189    0.073384   2.490    0.00466    0.01252
        442    42 -103.084254 -102.998885    0.085369   2.490    0.00312    0.01365
        443    41 -103.087211 -102.996058    0.091153   2.490    0.00262    0.01333
        444    40 -103.089599 -102.995258    0.094342   2.490    0.00274    0.01271
        445    42 -103.092144 -102.999148    0.092996   2.490    0.00301    0.01200
        446    38 -103.093740 -103.006620    0.087119   2.490    0.00290    0.01097
        447    41 -103.094478 -103.015477    0.079002   2.490    0.00375    0.00988
        448    41 -103.095653 -103.029078    0.066575   2.490    0.00388    0.00806
        449    42 -103.095927 -103.042878    0.053049   2.490    0.00451    0.00599
        450    42 -103.096672 -103.061193    0.035479   2.490    0.00440    0.00434
        451    42 -103.096682 -103.078293    0.018389   2.490    0.00446    0.00278
        452    42 -103.096344 -103.095161    0.001183   2.490    0.00425    0.00306
        453    42 -103.095621 -103.110970    0.015350   2.490    0.00394    0.00387
        454    41 -103.094493 -103.121698    0.027205   2.490    0.00339    0.00506
        455    41 -103.093618 -103.130308    0.036689   2.490    0.00297    0.00597
        456    36 -103.091909 -103.134977    0.043068   2.490    0.00234    0.00680
        457    35 -103.090922 -103.139269    0.048347   2.490    0.00186    0.00736
        458    36 -103.089418 -103.141804    0.052386   2.490    0.00170    0.00751
        459    42 -103.088352 -103.142481    0.054129   2.490    0.00186    0.00743
        460    42 -103.086438 -103.140126    0.053688   2.490    0.00183    0.00715
        461    45 -103.085375 -103.135939    0.050565   2.490    0.00175    0.00662
        462    47 -103.084458 -103.129335    0.044878   2.490    0.00209    0.00582
        463    47 -103.083738 -103.121178    0.037439   2.490    0.00230    0.00514
        464    41 -103.083204 -103.113468    0.030264   2.490    0.00245    0.00411
        465    42 -103.082891 -103.103819    0.020928   2.490    0.00249    0.00337
        466    41 -103.082746 -103.095696    0.012950   2.490    0.00245    0.00304
        467    41 -103.082780 -103.087149    0.004368   2.490    0.00240    0.00268
        468    41 -103.083021 -103.079605    0.003416   2.490    0.00232    0.00335
        469    41 -103.083407 -103.074566    0.008842   2.490    0.00229    0.00294
        470    41 -103.083906 -103.068979    0.014926   2.490    0.00224    0.00292
        471    40 -103.084500 -103.064755    0.019744   2.490    0.00211    0.00344
        472    40 -103.085190 -103.062308    0.022882   2.490    0.00181    0.00391
        473    38 -103.085550 -103.059829    0.025722   2.490    0.00123    0.00429
        474    38 -103.086289 -103.059388    0.026900   2.490    0.00103    0.00426
        475    38 -103.086788 -103.059743    0.027045   2.490    0.00096    0.00406
        476    39 -103.087308 -103.061331    0.025977   2.490    0.00101    0.00375
        477    41 -103.087730 -103.064030    0.023699   2.490    0.00103    0.00342
        478    38 -103.088132 -103.066590    0.021542   2.490    0.00106    0.00314
        479    38 -103.088459 -103.069454    0.019005   2.490    0.00114    0.00285
        480    38 -103.088744 -103.072128    0.016616   2.490    0.00128    0.00246
        481    38 -103.088774 -103.074853    0.013920   2.490    0.00137    0.00212
        482    42 -103.088955 -103.077880    0.011075   2.490    0.00141    0.00175
        483    42 -103.088951 -103.080877    0.008074   2.490    0.00140    0.00200
        484    41 -103.088923 -103.085335    0.003588   2.490    0.00140    0.00149
        485    40 -103.088785 -103.088331    0.000454   2.490    0.00138    0.00136
        486    41 -103.088588 -103.092254    0.003665   2.490    0.00130    0.00130
        487    40 -103.088369 -103.094876    0.006507   2.490    0.00120    0.00144
        488    41 -103.088117 -103.097572    0.009455   2.490    0.00110    0.00159
        489    41 -103.087835 -103.099166    0.011330   2.490    0.00101    0.00176
        490    38 -103.087515 -103.100300    0.012785   2.490    0.00093    0.00190
        491    39 -103.087180 -103.100686    0.013506   2.490    0.00086    0.00200
        492    38 -103.086849 -103.100616    0.013767   2.490    0.00080    0.00206
        493    38 -103.086540 -103.100114    0.013574   2.490    0.00073    0.00212
        494    39 -103.086261 -103.099634    0.013372   2.490    0.00069    0.00214
        495    42 -103.086018 -103.098772    0.012754   2.490    0.00068    0.00213
        496    42 -103.085811 -103.097814    0.012003   2.490    0.00071    0.00207
        497    42 -103.085638 -103.096686    0.011047   2.490    0.00076    0.00195
        498    42 -103.085498 -103.095455    0.009957   2.490    0.00082    0.00178
        499    41 -103.085375 -103.094111    0.008736   2.490    0.00088    0.00156
        500    40 -103.085256 -103.092748    0.007492   2.490    0.00093    0.00130
        501    41 -103.085165 -103.091431    0.006266   2.490    0.00098    0.00099
        502    41 -103.085077 -103.090102    0.005026   2.490    0.00099    0.00069
        503    47 -103.084922 -103.088616    0.003694   2.490    0.00091    0.00065
        504    47 -103.084959 -103.087226    0.002267   2.490    0.00083    0.00120
        505    41 -103.084988 -103.086480    0.001491   2.490    0.00074    0.00119
        506    42 -103.085055 -103.084889    0.000166   2.490    0.00073    0.00109
        507    38 -103.085117 -103.083708    0.001409   2.490    0.00075    0.00099
        508    38 -103.085119 -103.082269    0.002850   2.490    0.00062    0.00099
        509    37 -103.085134 -103.081144    0.003990   2.490    0.00054    0.00104
        510    42 -103.085269 -103.080253    0.005015   2.490    0.00047    0.00108
        511    42 -103.085383 -103.079250    0.006133   2.490    0.00041    0.00115
        512    42 -103.085558 -103.078353    0.007205   2.490    0.00038    0.00119
        513    42 -103.085732 -103.077660    0.008071   2.490    0.00039    0.00119
        514    42 -103.085936 -103.077297    0.008639   2.490    0.00041    0.00117
        515    42 -103.086145 -103.077306    0.008838   2.490    0.00045    0.00112
        516    42 -103.086362 -103.077691    0.008671   2.490    0.00049    0.00106
        517    41 -103.086567 -103.078402    0.008164   2.490    0.00053    0.00097
        518    41 -103.086748 -103.079374    0.007374   2.490    0.00055    0.00087
        519    41 -103.086892 -103.080533    0.006360   2.490    0.00057    0.00075
        520    41 -103.086992 -103.081805    0.005187   2.490    0.00058    0.00063
        521    41 -103.087046 -103.083126    0.003920   2.490    0.00059    0.00051
        522    41 -103.087055 -103.084442    0.002613   2.490    0.00059    0.00044
        523    42 -103.087023 -103.085836    0.001187   2.490    0.00057    0.00038
        524    42 -103.086953 -103.086914    0.000040   2.490    0.00055    0.00040
        525    42 -103.086860 -103.087946    0.001086   2.490    0.00052    0.00046
        526    42 -103.086752 -103.088727    0.001975   2.490    0.00048    0.00053
        527    39 -103.086637 -103.089358    0.002721   2.490    0.00045    0.00061
        528    42 -103.086524 -103.089762    0.003238   2.490    0.00043    0.00067
        529    42 -103.086410 -103.090028    0.003618   2.490    0.00041    0.00072
        530    42 -103.086304 -103.090128    0.003824   2.490    0.00040    0.00075
        531    43 -103.086179 -103.090128    0.003949   2.490    0.00036    0.00078
        532    42 -103.086074 -103.090098    0.004024   2.490    0.00034    0.00080
        533    47 -103.085980 -103.089987    0.004007   2.490    0.00033    0.00081
        534    43 -103.085889 -103.089792    0.003903   2.490    0.00033    0.00080
        535    45 -103.085811 -103.089553    0.003742   2.490    0.00034    0.00077
        536    42 -103.085739 -103.089273    0.003533   2.490    0.00036    0.00073
        537    42 -103.085680 -103.088962    0.003282   2.490    0.00038    0.00067
        538    42 -103.085629 -103.088628    0.002999   2.490    0.00041    0.00061
        539    42 -103.085587 -103.088273    0.002686   2.490    0.00043    0.00054
        540    42 -103.085553 -103.087895    0.002342   2.490    0.00044    0.00046
        541    42 -103.085527 -103.087493    0.001966   2.490    0.00045    0.00039
        542    47 -103.085508 -103.087063    0.001555   2.490    0.00046    0.00033
        543    47 -103.085499 -103.086601    0.001102   2.490    0.00046    0.00027
        544    47 -103.085498 -103.086113    0.000616   2.490    0.00045    0.00025
        545    47 -103.085507 -103.085601    0.000095   2.490    0.00044    0.00025
        546    47 -103.085526 -103.085079    0.000447   2.490    0.00043    0.00029
        547    47 -103.085557 -103.084556    0.001001   2.490    0.00041    0.00034
        548    42 -103.085599 -103.084050    0.001549   2.490    0.00038    0.00039
        549    42 -103.085652 -103.083583    0.002069   2.490    0.00036    0.00044
        550    42 -103.085716 -103.083169    0.002546   2.490    0.00034    0.00049
        551    42 -103.085788 -103.082829    0.002958   2.490    0.00032    0.00052
        552    42 -103.085866 -103.082577    0.003289   2.490    0.00031    0.00055
        553    42 -103.085948 -103.082423    0.003525   2.490    0.00030    0.00056
        554    42 -103.086032 -103.082375    0.003657   2.490    0.00030    0.00055
        555    41 -103.086114 -103.082434    0.003680   2.490    0.00030    0.00054
        556    41 -103.086191 -103.082599    0.003592   2.490    0.00031    0.00051
        557    42 -103.086261 -103.082859    0.003401   2.490    0.00033    0.00046
        558    42 -103.086322 -103.083204    0.003118   2.490    0.00034    0.00041
        559    42 -103.086372 -103.083619    0.002753   2.490    0.00035    0.00035
        560    42 -103.086411 -103.084086    0.002325   2.490    0.00036    0.00029
        561    47 -103.086436 -103.084590    0.001846   2.490    0.00037    0.00023
        562    47 -103.086449 -103.085105    0.001345   2.490    0.00037    0.00018
        563    47 -103.086450 -103.085622    0.000828   2.490    0.00037    0.00014
        564    49 -103.086439 -103.086119    0.000320   2.490    0.00036    0.00013
        565    49 -103.086418 -103.086586    0.000168   2.490    0.00036    0.00016
        566    47 -103.086386 -103.087010    0.000623   2.490    0.00035    0.00020
        567    48 -103.086348 -103.087382    0.001034   2.490    0.00034    0.00024
        568    47 -103.086302 -103.087697    0.001395   2.490    0.00033    0.00028
        569    42 -103.086252 -103.087945    0.001692   2.490    0.00032    0.00031
        570    42 -103.086199 -103.088141    0.001943   2.490    0.00031    0.00034
        571    42 -103.086143 -103.088268    0.002125   2.490    0.00030    0.00037
        572    42 -103.086087 -103.088341    0.002254   2.490    0.00030    0.00038
        573    42 -103.086031 -103.088354    0.002323   2.490    0.00030    0.00039
        574    42 -103.085977 -103.088317    0.002340   2.490    0.00030    0.00039
        575    42 -103.085926 -103.088231    0.002306   2.490    0.00030    0.00038
        576    42 -103.085878 -103.088102    0.002225   2.490    0.00031    0.00036
        577    42 -103.085834 -103.087934    0.002100   2.490    0.00031    0.00034
        578    42 -103.085794 -103.087730    0.001936   2.490    0.00032    0.00031
        579    42 -103.085761 -103.087495    0.001734   2.490    0.00032    0.00027
        580    42 -103.085733 -103.087233    0.001500   2.490    0.00032    0.00023
        581    47 -103.085712 -103.086948    0.001236   2.490    0.00033    0.00019
        582    47 -103.085698 -103.086646    0.000949   2.490    0.00033    0.00014
        583    47 -103.085690 -103.086330    0.000640   2.490    0.00032    0.00011
        584    53 -103.085690 -103.086008    0.000318   2.490    0.00032    0.00010
        585    54 -103.085698 -103.085686    0.000012   2.490    0.00032    0.00011
        586    53 -103.085712 -103.085370    0.000342   2.490    0.00031    0.00014
        587    51 -103.085734 -103.085069    0.000665   2.490    0.00030    0.00017
        588    48 -103.085761 -103.084789    0.000972   2.490    0.00030    0.00020
        589    47 -103.085795 -103.084539    0.001256   2.490    0.00029    0.00023
        590    47 -103.085832 -103.084323    0.001509   2.490    0.00029    0.00025
        591    42 -103.085874 -103.084150    0.001724   2.490    0.00028    0.00027
        592    42 -103.085918 -103.084022    0.001896   2.490    0.00028    0.00028
        593    42 -103.085963 -103.083944    0.002019   2.490    0.00028    0.00029
        594    42 -103.086009 -103.083918    0.002091   2.490    0.00028    0.00029
        595    42 -103.086053 -103.083943    0.002110   2.490    0.00028    0.00028
        596    42 -103.086095 -103.084018    0.002077   2.490    0.00029    0.00027
        597    42 -103.086133 -103.084140    0.001993   2.490    0.00029    0.00025
        598    47 -103.086167 -103.084308    0.001859   2.490    0.00029    0.00023
        599    47 -103.086195 -103.084505    0.001690   2.490    0.00030    0.00020

        ==> Orbital Optimization <==

            Jacobi Optimization converged.
            Total energy change: -7.020043e-05

        600    47 -103.086288 -103.323825    0.237538   4.216    0.00030    0.00018
        601    79 -103.082227 -103.319814    0.237587   4.216    0.00838    0.04031
        602    53 -103.078454 -103.264914    0.186460   4.216    0.01014    0.02750
        603    47 -103.075546 -103.204044    0.128498   4.216    0.00873    0.02263
        604    41 -103.073939 -103.149464    0.075525   4.216    0.00716    0.01901
        605    38 -103.073642 -103.109948    0.036306   4.216    0.00656    0.01564
        606    38 -103.074416 -103.083857    0.009441   4.216    0.00617    0.01386
        607    38 -103.075769 -103.063778    0.011991   4.216    0.00542    0.01510
        608    37 -103.077526 -103.047829    0.029697   4.216    0.00472    0.01698
        609    37 -103.078560 -103.033279    0.045282   4.216    0.00421    0.01761
        610    42 -103.079798 -103.029298    0.050499   4.216    0.00419    0.01696
        611    40 -103.081156 -103.025972    0.055184   4.216    0.00397    0.01672
        612    42 -103.082680 -103.024819    0.057861   4.216    0.00347    0.01635
        613    42 -103.084216 -103.025734    0.058482   4.216    0.00307    0.01551
        614    42 -103.085483 -103.026500    0.058983   4.216    0.00319    0.01361
        615    41 -103.086586 -103.028129    0.058457   4.216    0.00340    0.01127
        616    38 -103.087211 -103.030796    0.056415   4.216    0.00310    0.00990
        617    42 -103.087744 -103.033576    0.054168   4.216    0.00276    0.00989
        618    38 -103.088610 -103.035898    0.052712   4.216    0.00230    0.01015
        619    47 -103.089381 -103.037254    0.052127   4.216    0.00223    0.01022
        620    42 -103.089701 -103.043606    0.046094   4.216    0.00185    0.01050
        621    46 -103.089738 -103.056488    0.033250   4.216    0.00193    0.00956
        622    41 -103.089872 -103.061955    0.027917   4.216    0.00193    0.00844
        623    42 -103.089771 -103.069318    0.020453   4.216    0.00196    0.00736
        624    47 -103.089603 -103.073548    0.016055   4.216    0.00200    0.00600
        625    47 -103.089268 -103.077701    0.011567   4.216    0.00199    0.00446
        626    47 -103.088842 -103.083684    0.005158   4.216    0.00204    0.00339
        627    47 -103.088912 -103.090961    0.002049   4.216    0.00190    0.00315
        628    42 -103.088708 -103.096218    0.007510   4.216    0.00172    0.00409
        629    42 -103.088584 -103.104117    0.015533   4.216    0.00150    0.00454
        630    42 -103.088327 -103.108705    0.020377   4.216    0.00135    0.00486
        631    47 -103.088058 -103.112440    0.024382   4.216    0.00120    0.00522
        632    42 -103.087711 -103.114636    0.026925   4.216    0.00110    0.00546
        633    47 -103.087352 -103.116339    0.028987   4.216    0.00101    0.00551
        634    42 -103.086977 -103.117187    0.030210   4.216    0.00091    0.00540
        635    42 -103.086607 -103.117638    0.031031   4.216    0.00081    0.00521
        636    42 -103.086250 -103.117309    0.031058   4.216    0.00074    0.00499
        637    47 -103.085915 -103.116357    0.030442   4.216    0.00072    0.00476
        638    40 -103.085585 -103.115197    0.029612   4.216    0.00075    0.00462
        639    42 -103.085282 -103.113898    0.028616   4.216    0.00085    0.00441
        640    42 -103.084960 -103.111155    0.026195   4.216    0.00096    0.00415
        641    42 -103.084677 -103.108457    0.023780   4.216    0.00109    0.00379
        642    42 -103.084400 -103.105132    0.020732   4.216    0.00121    0.00330
        643    38 -103.084136 -103.101786    0.017651   4.216    0.00131    0.00269
        644    37 -103.083934 -103.097884    0.013950   4.216    0.00133    0.00215
        645    37 -103.083810 -103.093507    0.009697   4.216    0.00127    0.00184
        646    37 -103.083771 -103.088713    0.004943   4.216    0.00116    0.00180
        647    37 -103.083815 -103.083873    0.000058   4.216    0.00103    0.00190
        648    41 -103.083942 -103.079137    0.004805   4.216    0.00091    0.00203
        649    41 -103.084141 -103.074603    0.009538   4.216    0.00081    0.00218
        650    46 -103.084400 -103.070629    0.013771   4.216    0.00073    0.00236
        651    45 -103.084703 -103.067271    0.017432   4.216    0.00065    0.00258
        652    46 -103.085041 -103.064800    0.020241   4.216    0.00056    0.00283
        653    45 -103.085391 -103.063106    0.022285   4.216    0.00049    0.00305
        654    45 -103.085743 -103.062209    0.023533   4.216    0.00044    0.00320
        655    47 -103.086084 -103.062070    0.024014   4.216    0.00043    0.00324
        656    46 -103.086349 -103.062662    0.023686   4.216    0.00050    0.00319
        657    42 -103.086675 -103.064112    0.022563   4.216    0.00054    0.00304
        658    45 -103.086917 -103.065855    0.021063   4.216    0.00060    0.00284
        659    42 -103.087153 -103.068254    0.018899   4.216    0.00064    0.00261
        660    42 -103.087330 -103.071008    0.016322   4.216    0.00066    0.00236
        661    41 -103.087464 -103.073985    0.013479   4.216    0.00068    0.00211
        662    41 -103.087547 -103.077232    0.010315   4.216    0.00067    0.00188
        663    41 -103.087580 -103.080748    0.006832   4.216    0.00066    0.00169
        664    41 -103.087557 -103.084121    0.003436   4.216    0.00064    0.00153
        665    42 -103.087487 -103.086997    0.000490   4.216    0.00062    0.00143
        666    42 -103.087380 -103.089577    0.002197   4.216    0.00060    0.00137
        667    47 -103.087251 -103.091665    0.004414   4.216    0.00058    0.00135
        668    47 -103.087105 -103.093352    0.006247   4.216    0.00057    0.00136
        669    47 -103.086952 -103.094581    0.007628   4.216    0.00056    0.00148
        670    42 -103.086780 -103.095691    0.008910   4.216    0.00054    0.00154
        671    47 -103.086612 -103.096361    0.009749   4.216    0.00053    0.00164
        672    47 -103.086450 -103.096723    0.010273   4.216    0.00051    0.00172
        673    47 -103.086297 -103.096861    0.010564   4.216    0.00049    0.00177
        674    42 -103.086158 -103.096800    0.010643   4.216    0.00047    0.00179
        675    42 -103.086032 -103.096580    0.010548   4.216    0.00044    0.00181
        676    42 -103.085922 -103.096209    0.010287   4.216    0.00041    0.00181
        677    42 -103.085827 -103.095712    0.009885   4.216    0.00039    0.00181
        678    42 -103.085746 -103.095090    0.009344   4.216    0.00038    0.00179
        679    43 -103.085678 -103.094357    0.008679   4.216    0.00039    0.00176
        680    43 -103.085622 -103.093511    0.007889   4.216    0.00041    0.00170
        681    47 -103.085577 -103.092566    0.006989   4.216    0.00044    0.00161
        682    42 -103.085544 -103.091521    0.005977   4.216    0.00048    0.00150
        683    43 -103.085523 -103.090413    0.004891   4.216    0.00051    0.00136
        684    43 -103.085513 -103.089252    0.003739   4.216    0.00054    0.00118
        685    42 -103.085514 -103.088135    0.002621   4.216    0.00056    0.00099
        686    41 -103.085522 -103.087053    0.001531   4.216    0.00056    0.00079
        687    41 -103.085534 -103.085996    0.000463   4.216    0.00055    0.00064
        688    41 -103.085551 -103.084931    0.000621   4.216    0.00052    0.00060
        689    47 -103.085577 -103.083893    0.001684   4.216    0.00048    0.00067
        690    47 -103.085613 -103.082908    0.002705   4.216    0.00044    0.00078
        691    47 -103.085658 -103.082008    0.003650   4.216    0.00040    0.00090
        692    47 -103.085712 -103.081220    0.004492   4.216    0.00036    0.00099
        693    47 -103.085773 -103.080572    0.005201   4.216    0.00033    0.00105
        694    47 -103.085840 -103.080076    0.005764   4.216    0.00031    0.00109
        695    47 -103.085913 -103.079739    0.006174   4.216    0.00029    0.00114
        696    47 -103.085985 -103.079762    0.006223   4.216    0.00028    0.00115
        697    47 -103.086053 -103.079781    0.006271   4.216    0.00027    0.00115
        698    42 -103.086118 -103.079776    0.006342   4.216    0.00026    0.00113
        699    42 -103.086185 -103.079901    0.006284   4.216    0.00025    0.00109
        700    42 -103.086253 -103.080085    0.006168   4.216    0.00025    0.00104
        701    42 -103.086320 -103.080385    0.005935   4.216    0.00025    0.00099
        702    48 -103.086379 -103.080870    0.005509   4.216    0.00026    0.00092
        703    49 -103.086427 -103.081480    0.004948   4.216    0.00027    0.00084
        704    47 -103.086471 -103.082113    0.004358   4.216    0.00028    0.00075
        705    47 -103.086503 -103.082869    0.003635   4.216    0.00029    0.00065
        706    47 -103.086527 -103.083661    0.002866   4.216    0.00029    0.00054
        707    47 -103.086540 -103.084509    0.002030   4.216    0.00029    0.00044
        708    47 -103.086543 -103.085364    0.001179   4.216    0.00029    0.00037
        709    47 -103.086536 -103.086218    0.000318   4.216    0.00029    0.00035
        710    47 -103.086519 -103.087042    0.000523   4.216    0.00028    0.00036
        711    48 -103.086492 -103.087823    0.001331   4.216    0.00028    0.00040
        712    48 -103.086454 -103.088537    0.002083   4.216    0.00027    0.00046
        713    47 -103.086408 -103.089165    0.002757   4.216    0.00027    0.00052
        714    47 -103.086355 -103.089691    0.003336   4.216    0.00026    0.00057
        715    47 -103.086297 -103.090100    0.003803   4.216    0.00026    0.00063
        716    42 -103.086236 -103.090381    0.004144   4.216    0.00025    0.00067
        717    47 -103.086175 -103.090539    0.004364   4.216    0.00025    0.00071
        718    47 -103.086116 -103.090563    0.004447   4.216    0.00024    0.00073
        719    47 -103.086060 -103.090471    0.004411   4.216    0.00024    0.00073
        720    47 -103.086010 -103.090266    0.004257   4.216    0.00024    0.00073
        721    49 -103.085966 -103.089968    0.004002   4.216    0.00024    0.00071
        722    49 -103.085929 -103.089590    0.003661   4.216    0.00025    0.00068
        723    48 -103.085899 -103.089152    0.003253   4.216    0.00025    0.00064
        724    49 -103.085877 -103.088670    0.002793   4.216    0.00026    0.00059
        725    47 -103.085862 -103.088162    0.002300   4.216    0.00026    0.00054
        726    47 -103.085853 -103.087642    0.001789   4.216    0.00027    0.00049
        727    47 -103.085850 -103.087123    0.001273   4.216    0.00027    0.00043
        728    47 -103.085852 -103.086617    0.000765   4.216    0.00027    0.00036
        729    47 -103.085858 -103.086133    0.000275   4.216    0.00027    0.00030
        730    47 -103.085869 -103.085678    0.000191   4.216    0.00027    0.00025
        731    47 -103.085883 -103.085259    0.000624   4.216    0.00027    0.00023
        732    47 -103.085901 -103.084880    0.001021   4.216    0.00027    0.00023
        733    47 -103.085921 -103.084544    0.001377   4.216    0.00026    0.00026
        734    47 -103.085943 -103.084252    0.001690   4.216    0.00025    0.00031
        735    47 -103.085966 -103.084006    0.001960   4.216    0.00024    0.00036
        736    47 -103.085991 -103.083806    0.002185   4.216    0.00023    0.00041
        737    47 -103.086016 -103.083651    0.002366   4.216    0.00022    0.00045
        738    47 -103.086042 -103.083540    0.002501   4.216    0.00021    0.00049
        739    47 -103.086067 -103.083475    0.002593   4.216    0.00020    0.00051
        740    48 -103.086093 -103.083453    0.002640   4.216    0.00019    0.00053
        741    49 -103.086117 -103.083476    0.002642   4.216    0.00019    0.00053
        742    48 -103.086141 -103.083540    0.002601   4.216    0.00019    0.00053
        743    48 -103.086164 -103.083647    0.002516   4.216    0.00019    0.00052
        744    48 -103.086185 -103.083794    0.002390   4.216    0.00020    0.00050
        745    48 -103.086204 -103.083979    0.002225   4.216    0.00020    0.00047
        746    48 -103.086222 -103.084198    0.002024   4.216    0.00020    0.00043
        747    48 -103.086236 -103.084445    0.001791   4.216    0.00021    0.00038
        748    48 -103.086248 -103.084717    0.001531   4.216    0.00021    0.00034
        749    48 -103.086257 -103.085006    0.001251   4.216    0.00022    0.00028
        750    48 -103.086263 -103.085305    0.000958   4.216    0.00022    0.00023
        751    48 -103.086265 -103.085607    0.000658   4.216    0.00022    0.00019
        752    48 -103.086264 -103.085905    0.000359   4.216    0.00022    0.00016
        753    48 -103.086260 -103.086192    0.000068   4.216    0.00022    0.00015
        754    48 -103.086253 -103.086464    0.000210   4.216    0.00022    0.00016
        755    49 -103.086244 -103.086714    0.000470   4.216    0.00022    0.00019
        756    48 -103.086232 -103.086939    0.000707   4.216    0.00021    0.00023
        757    47 -103.086218 -103.087136    0.000918   4.216    0.00021    0.00027
        758    47 -103.086203 -103.087303    0.001100   4.216    0.00021    0.00031
        759    47 -103.086186 -103.087439    0.001253   4.216    0.00021    0.00034
        760    46 -103.086168 -103.087543    0.001375   4.216    0.00020    0.00036
        761    47 -103.086150 -103.087616    0.001467   4.216    0.00020    0.00038
        762    47 -103.086131 -103.087657    0.001527   4.216    0.00020    0.00038
        763    48 -103.086112 -103.087668    0.001556   4.216    0.00020    0.00038
        764    48 -103.086094 -103.087647    0.001554   4.216    0.00020    0.00038
        765    48 -103.086076 -103.087597    0.001521   4.216    0.00020    0.00036
        766    48 -103.086059 -103.087517    0.001458   4.216    0.00020    0.00034
        767    48 -103.086043 -103.087409    0.001366   4.216    0.00020    0.00031
        768    48 -103.086028 -103.087274    0.001246   4.216    0.00020    0.00028
        769    49 -103.086016 -103.087115    0.001099   4.216    0.00020    0.00025
        770    52 -103.086006 -103.086933    0.000927   4.216    0.00020    0.00021
        771    48 -103.085997 -103.086735    0.000738   4.216    0.00020    0.00017
        772    52 -103.085992 -103.086519    0.000527   4.216    0.00020    0.00014
        773    52 -103.085989 -103.086298    0.000309   4.216    0.00020    0.00011
        774    52 -103.085989 -103.086070    0.000081   4.216    0.00020    0.00010
        775    52 -103.085991 -103.085844    0.000146   4.216    0.00020    0.00011
        776    53 -103.085995 -103.085626    0.000370   4.216    0.00020    0.00014
        777    52 -103.086003 -103.085419    0.000584   4.216    0.00019    0.00017
        778    47 -103.086012 -103.085230    0.000781   4.216    0.00019    0.00020
        779    47 -103.086023 -103.085062    0.000961   4.216    0.00019    0.00022
        780    47 -103.086035 -103.084919    0.001116   4.216    0.00019    0.00024
        781    47 -103.086049 -103.084804    0.001245   4.216    0.00018    0.00026
        782    48 -103.086064 -103.084717    0.001346   4.216    0.00018    0.00028
        783    48 -103.086078 -103.084660    0.001418   4.216    0.00018    0.00028
        784    48 -103.086093 -103.084633    0.001460   4.216    0.00018    0.00028
        785    48 -103.086108 -103.084634    0.001474   4.216    0.00018    0.00028
        786    48 -103.086122 -103.084662    0.001460   4.216    0.00018    0.00027
        787    48 -103.086135 -103.084715    0.001420   4.216    0.00018    0.00026
        788    48 -103.086147 -103.084790    0.001357   4.216    0.00018    0.00024
        789    48 -103.086158 -103.084885    0.001272   4.216    0.00018    0.00022
        790    48 -103.086167 -103.084998    0.001170   4.216    0.00019    0.00020
        791    48 -103.086175 -103.085124    0.001051   4.216    0.00019    0.00017
        792    48 -103.086182 -103.085263    0.000919   4.216    0.00019    0.00015
        793    48 -103.086187 -103.085409    0.000777   4.216    0.00019    0.00013
        794    54 -103.086190 -103.085563    0.000627   4.216    0.00019    0.00011
        795    55 -103.086192 -103.085718    0.000474   4.216    0.00019    0.00010
        796    55 -103.086192 -103.085875    0.000317   4.216    0.00019    0.00010
        797    55 -103.086190 -103.086028    0.000162   4.216    0.00019    0.00011
        798    55 -103.086187 -103.086178    0.000009   4.216    0.00018    0.00012
        799    53 -103.086183 -103.086320    0.000137   4.216    0.00018    0.00014

        ==> Orbital Optimization <==

            Jacobi Optimization converged.
            Total energy change: -1.474863e-05

        800    52 -103.086191 -103.202940    0.116748   4.828    0.00018    0.00016
        801    76 -103.085012 -103.187319    0.102307   4.828    0.00397    0.02003
        802    54 -103.083546 -103.161750    0.078204   4.828    0.00461    0.01326
        803    50 -103.082368 -103.134665    0.052297   4.828    0.00390    0.01084
        804    42 -103.081762 -103.110726    0.028964   4.828    0.00317    0.00894
        805    38 -103.081627 -103.093161    0.011534   4.828    0.00282    0.00739
        806    38 -103.081810 -103.080889    0.000920   4.828    0.00260    0.00685
        807    38 -103.082201 -103.072498    0.009703   4.828    0.00235    0.00730
        808    37 -103.082756 -103.066218    0.016538   4.828    0.00217    0.00778
        809    41 -103.083460 -103.061808    0.021652   4.828    0.00203    0.00801
        810    42 -103.084059 -103.058373    0.025685   4.828    0.00160    0.00834
        811    41 -103.084690 -103.057144    0.027545   4.828    0.00137    0.00848
        812    41 -103.085423 -103.056433    0.028989   4.828    0.00118    0.00839
        813    42 -103.086067 -103.055284    0.030784   4.828    0.00120    0.00797
[...]
        834    31 -109.094558 -109.093745    0.000813   0.989    0.00064    0.00054
        835    33 -109.094550 -109.093563    0.000987   0.989    0.00067    0.00051
        836    26 -109.094556 -109.093411    0.001146   0.989    0.00068    0.00049
        837    32 -109.094555 -109.093254    0.001301   0.989    0.00068    0.00048
        838    34 -109.094566 -109.093154    0.001411   0.989    0.00065    0.00047
        839    35 -109.094580 -109.093111    0.001468   0.989    0.00062    0.00047
        840    35 -109.094597 -109.093122    0.001475   0.989    0.00056    0.00046
        841    38 -109.094615 -109.093170    0.001446   0.989    0.00051    0.00046
        842    38 -109.094635 -109.093246    0.001389   0.989    0.00046    0.00046
        843    37 -109.094657 -109.093352    0.001304   0.989    0.00042    0.00046
        844    37 -109.094682 -109.093489    0.001194   0.989    0.00039    0.00044
        845    37 -109.094709 -109.093648    0.001061   0.989    0.00038    0.00043
        846    37 -109.094738 -109.093834    0.000904   0.989    0.00040    0.00041
        847    36 -109.094767 -109.094039    0.000728   0.989    0.00043    0.00038
        848    35 -109.094792 -109.094262    0.000530   0.989    0.00048    0.00034
        849    35 -109.094817 -109.094490    0.000327   0.989    0.00053    0.00031
        850    34 -109.094833 -109.094711    0.000122   0.989    0.00058    0.00027
        851    33 -109.094842 -109.094920    0.000078   0.989    0.00061    0.00024
        852    35 -109.094841 -109.095102    0.000261   0.989    0.00061    0.00023
        853    35 -109.094828 -109.095260    0.000433   0.989    0.00059    0.00024
        854    35 -109.094805 -109.095390    0.000586   0.989    0.00055    0.00026
        855    35 -109.094771 -109.095495    0.000724   0.989    0.00048    0.00028
        856    35 -109.094730 -109.095571    0.000841   0.989    0.00040    0.00031
        857    34 -109.094683 -109.095620    0.000937   0.989    0.00032    0.00032
        858    26 -109.094634 -109.095638    0.001004   0.989    0.00024    0.00033
        859    32 -109.094585 -109.095628    0.001043   0.989    0.00019    0.00033
        860    30 -109.094538 -109.095584    0.001047   0.989    0.00019    0.00031
        861    32 -109.094495 -109.095508    0.001013   0.989    0.00022    0.00029
        862    31 -109.094457 -109.095402    0.000945   0.989    0.00027    0.00026
        863    32 -109.094428 -109.095269    0.000841   0.989    0.00031    0.00022
        864    32 -109.094407 -109.095115    0.000708   0.989    0.00034    0.00019
        865    34 -109.094393 -109.094946    0.000553   0.989    0.00036    0.00016
        866    34 -109.094389 -109.094771    0.000382   0.989    0.00036    0.00014
        867    37 -109.094395 -109.094596    0.000201   0.989    0.00035    0.00013
        868    38 -109.094407 -109.094432    0.000025   0.989    0.00033    0.00015
        869    38 -109.094426 -109.094280    0.000146   0.989    0.00031    0.00016
        870    37 -109.094451 -109.094150    0.000301   0.989    0.00027    0.00018
        871    38 -109.094480 -109.094042    0.000437   0.989    0.00024    0.00020
        872    35 -109.094510 -109.093962    0.000547   0.989    0.00021    0.00021
        873    33 -109.094543 -109.093906    0.000636   0.989    0.00020    0.00021
        874    35 -109.094573 -109.093880    0.000693   0.989    0.00021    0.00021
        875    35 -109.094602 -109.093875    0.000728   0.989    0.00024    0.00020
        876    33 -109.094628 -109.093891    0.000738   0.989    0.00027    0.00019
        877    31 -109.094648 -109.093923    0.000726   0.989    0.00030    0.00018
        878    30 -109.094665 -109.093965    0.000699   0.989    0.00032    0.00016
        879    33 -109.094676 -109.094017    0.000659   0.989    0.00034    0.00014
        880    34 -109.094684 -109.094073    0.000611   0.989    0.00035    0.00013
        881    35 -109.094686 -109.094131    0.000555   0.989    0.00035    0.00012
        882    35 -109.094686 -109.094188    0.000497   0.989    0.00033    0.00011
        883    35 -109.094682 -109.094246    0.000436   0.989    0.00031    0.00012
        884    36 -109.094678 -109.094303    0.000375   0.989    0.00028    0.00012
        885    35 -109.094671 -109.094357    0.000313   0.989    0.00025    0.00013
        886    32 -109.094664 -109.094422    0.000242   0.989    0.00022    0.00014
        887    28 -109.094656 -109.094476    0.000181   0.989    0.00019    0.00014
        888    32 -109.094647 -109.094522    0.000126   0.989    0.00016    0.00014
        889    31 -109.094638 -109.094568    0.000070   0.989    0.00014    0.00014
        890    33 -109.094629 -109.094609    0.000020   0.989    0.00014    0.00013
        891    33 -109.094620 -109.094649    0.000029   0.989    0.00015    0.00013
        892    34 -109.094613 -109.094685    0.000072   0.989    0.00016    0.00011
        893    34 -109.094604 -109.094716    0.000113   0.989    0.00017    0.00010
        894    35 -109.094596 -109.094742    0.000146   0.989    0.00018    0.00009
        895    35 -109.094589 -109.094761    0.000173   0.989    0.00019    0.00008
        896    38 -109.094582 -109.094774    0.000192   0.989    0.00019    0.00008
        897    38 -109.094575 -109.094780    0.000205   0.989    0.00019    0.00008
        898    38 -109.094569 -109.094780    0.000211   0.989    0.00018    0.00008
        899    35 -109.094564 -109.094773    0.000209   0.989    0.00017    0.00009
        900    35 -109.094559 -109.094760    0.000201   0.989    0.00016    0.00010
        901    35 -109.094556 -109.094742    0.000187   0.989    0.00015    0.00010
        902    35 -109.094553 -109.094720    0.000167   0.989    0.00015    0.00010
        903    34 -109.094552 -109.094694    0.000142   0.989    0.00015    0.00010
        904    35 -109.094551 -109.094664    0.000112   0.989    0.00015    0.00010
        905    35 -109.094552 -109.094632    0.000079   0.989    0.00016    0.00010
        906    35 -109.094554 -109.094598    0.000044   0.989    0.00017    0.00009
        907    35 -109.094557 -109.094564    0.000007   0.989    0.00018    0.00009
        908    38 -109.094560 -109.094532    0.000029   0.989    0.00019    0.00008
        909    35 -109.094564 -109.094498    0.000067   0.989    0.00020    0.00007
        910    38 -109.094568 -109.094471    0.000097   0.989    0.00020    0.00007
        911    35 -109.094573 -109.094441    0.000132   0.989    0.00020    0.00007
        912    38 -109.094577 -109.094422    0.000154   0.989    0.00020    0.00007
        913    35 -109.094581 -109.094400    0.000181   0.989    0.00019    0.00007
        914    35 -109.094585 -109.094389    0.000195   0.989    0.00018    0.00007
        915    35 -109.094588 -109.094378    0.000210   0.989    0.00017    0.00008
        916    33 -109.094590 -109.094374    0.000216   0.989    0.00015    0.00008
        917    35 -109.094591 -109.094373    0.000219   0.989    0.00014    0.00008
        918    33 -109.094592 -109.094375    0.000217   0.989    0.00013    0.00008
        919    35 -109.094592 -109.094381    0.000211   0.989    0.00012    0.00008
        920    35 -109.094591 -109.094389    0.000203   0.989    0.00012    0.00008
        921    38 -109.094589 -109.094399    0.000191   0.989    0.00012    0.00007
        922    35 -109.094589 -109.094409    0.000180   0.989    0.00012    0.00007
        923    38 -109.094586 -109.094422    0.000164   0.989    0.00013    0.00006
        924    38 -109.094585 -109.094433    0.000151   0.989    0.00013    0.00006
        925    39 -109.094582 -109.094446    0.000136   0.989    0.00013    0.00005
        926    39 -109.094581 -109.094459    0.000122   0.989    0.00014    0.00005
        927    39 -109.094580 -109.094471    0.000108   0.989    0.00014    0.00004
        928    39 -109.094579 -109.094484    0.000095   0.989    0.00014    0.00004
        929    40 -109.094578 -109.094496    0.000082   0.989    0.00013    0.00005
        930    36 -109.094578 -109.094509    0.000069   0.989    0.00013    0.00005
        931    36 -109.094577 -109.094520    0.000057   0.989    0.00013    0.00005
        932    36 -109.094577 -109.094531    0.000045   0.989    0.00013    0.00006
        933    34 -109.094576 -109.094542    0.000034   0.989    0.00012    0.00006
        934    35 -109.094576 -109.094550    0.000025   0.989    0.00012    0.00006
        935    35 -109.094575 -109.094558    0.000017   0.989    0.00012    0.00006
        936    35 -109.094574 -109.094564    0.000010   0.989    0.00012    0.00006
        937    35 -109.094573 -109.094568    0.000005   0.989    0.00012    0.00006
        938    35 -109.094572 -109.094571    0.000001   0.989    0.00013    0.00006
        939    35 -109.094570 -109.094571    0.000000   0.989    0.00013    0.00005
        940    35 -109.094569 -109.094569    0.000000   0.989    0.00013    0.00005
        941    35 -109.094568 -109.094565    0.000003   0.989    0.00013    0.00005
        942    35 -109.094566 -109.094559    0.000007   0.989    0.00013    0.00005
        943    38 -109.094565 -109.094552    0.000013   0.989    0.00013    0.00005
        944    38 -109.094563 -109.094542    0.000022   0.989    0.00012    0.00005
        945    38 -109.094563 -109.094532    0.000030   0.989    0.00012    0.00005
        946    38 -109.094562 -109.094521    0.000041   0.989    0.00012    0.00005
        947    35 -109.094562 -109.094510    0.000052   0.989    0.00011    0.00005
        948    38 -109.094561 -109.094500    0.000061   0.989    0.00011    0.00005
        949    35 -109.094562 -109.094489    0.000073   0.989    0.00011    0.00005
        950    38 -109.094562 -109.094481    0.000081   0.989    0.00011    0.00005
        951    37 -109.094563 -109.094472    0.000091   0.989    0.00011    0.00005
        952    38 -109.094564 -109.094466    0.000098   0.989    0.00011    0.00004
        953    38 -109.094565 -109.094460    0.000105   0.989    0.00011    0.00004
        954    38 -109.094566 -109.094457    0.000110   0.989    0.00011    0.00004
        955    38 -109.094568 -109.094455    0.000113   0.989    0.00011    0.00004
        956    39 -109.094569 -109.094455    0.000115   0.989    0.00011    0.00003
        957    39 -109.094571 -109.094456    0.000115   0.989    0.00011    0.00003
        958    39 -109.094572 -109.094459    0.000114   0.989    0.00011    0.00003
        959    39 -109.094574 -109.094463    0.000111   0.989    0.00011    0.00003
        960    39 -109.094575 -109.094468    0.000107   0.989    0.00011    0.00004
        961    39 -109.094576 -109.094474    0.000102   0.989    0.00011    0.00004
        962    39 -109.094577 -109.094481    0.000096   0.989    0.00010    0.00004
        963    39 -109.094578 -109.094489    0.000090   0.989    0.00010    0.00004
        964    39 -109.094579 -109.094496    0.000083   0.989    0.00010    0.00004
        965    38 -109.094580 -109.094504    0.000076   0.989    0.00010    0.00004
        966    39 -109.094581 -109.094512    0.000069   0.989    0.00010    0.00004
        967    38 -109.094581 -109.094519    0.000061   0.989    0.00010    0.00004
        968    39 -109.094581 -109.094526    0.000055   0.989    0.00010    0.00004
        969    38 -109.094581 -109.094533    0.000048   0.989    0.00010    0.00004
        970    38 -109.094581 -109.094539    0.000042   0.989    0.00010    0.00004
        971    38 -109.094581 -109.094544    0.000037   0.989    0.00010    0.00004
        972    38 -109.094580 -109.094548    0.000033   0.989    0.00010    0.00004
        973    38 -109.094579 -109.094551    0.000029   0.989    0.00010    0.00004
        974    38 -109.094579 -109.094552    0.000026   0.989    0.00010    0.00004
        975    35 -109.094578 -109.094552    0.000025   0.989    0.00010    0.00004

        ==> Orbital Optimization <==

            Jacobi Optimization converged.
            Total energy change: -6.850530e-07

        976    70 -109.094737 -109.091564    0.003174   0.989    0.00063    0.00086
        977    42 -109.094942 -109.092901    0.002040   0.989    0.00063    0.00052
        978    37 -109.095060 -109.093772    0.001288   0.989    0.00056    0.00046
        979    36 -109.095074 -109.094183    0.000891   0.989    0.00046    0.00043
        980    38 -109.095031 -109.094332    0.000699   0.989    0.00044    0.00037
        981    37 -109.094983 -109.094352    0.000631   0.989    0.00045    0.00025
        982    40 -109.094938 -109.094339    0.000599   0.989    0.00040    0.00021
        983    39 -109.094892 -109.094388    0.000504   0.989    0.00030    0.00026
        984    40 -109.094841 -109.094581    0.000260   0.989    0.00028    0.00030
        985    37 -109.094785 -109.094900    0.000115   0.989    0.00031    0.00030
        986    35 -109.094728 -109.095241    0.000513   0.989    0.00031    0.00029
        987    34 -109.094669 -109.095502    0.000833   0.989    0.00026    0.00028
        988    32 -109.094615 -109.095609    0.000994   0.989    0.00020    0.00028
        989    32 -109.094561 -109.095567    0.001006   0.989    0.00018    0.00026
        990    36 -109.094517 -109.095412    0.000895   0.989    0.00019    0.00024
        991    36 -109.094481 -109.095221    0.000740   0.989    0.00019    0.00021
        992    37 -109.094458 -109.095039    0.000581   0.989    0.00019    0.00019
        993    37 -109.094448 -109.094905    0.000457   0.989    0.00019    0.00018
        994    38 -109.094449 -109.094825    0.000376   0.989    0.00020    0.00016
        995    41 -109.094461 -109.094779    0.000318   0.989    0.00020    0.00015
        996    41 -109.094478 -109.094739    0.000261   0.989    0.00021    0.00015
        997    39 -109.094500 -109.094696    0.000196   0.989    0.00021    0.00015
        998    37 -109.094522 -109.094645    0.000124   0.989    0.00021    0.00015
        999    34 -109.094544 -109.094592    0.000048   0.989    0.00022    0.00014

        ==> Orbital Optimization <==

            Jacobi Optimization converged.
            Total energy change: -1.667320e-08

       1000    32 -109.094564 -109.093294    0.001270   1.558    0.00021    0.00013
       1001    43 -109.094587 -109.094125    0.000462   1.558    0.00020    0.00019
       1002    38 -109.094612 -109.094274    0.000338   1.558    0.00019    0.00018
       1003    37 -109.094627 -109.094373    0.000255   1.558    0.00019    0.00018
       1004    36 -109.094630 -109.094406    0.000224   1.558    0.00017    0.00019
       1005    35 -109.094624 -109.094398    0.000226   1.558    0.00016    0.00019
       1006    36 -109.094616 -109.094360    0.000257   1.558    0.00015    0.00019
       1007    37 -109.094607 -109.094305    0.000301   1.558    0.00013    0.00018
       1008    37 -109.094598 -109.094254    0.000344   1.558    0.00013    0.00017
       1009    37 -109.094588 -109.094223    0.000365   1.558    0.00014    0.00016
       1010    35 -109.094581 -109.094216    0.000365   1.558    0.00015    0.00014
       1011    35 -109.094575 -109.094225    0.000350   1.558    0.00016    0.00013
       1012    28 -109.094572 -109.094242    0.000330   1.558    0.00017    0.00011
       1013    35 -109.094572 -109.094251    0.000321   1.558    0.00016    0.00011
       1014    35 -109.094572 -109.094261    0.000311   1.558    0.00015    0.00010
       1015    38 -109.094576 -109.094269    0.000307   1.558    0.00014    0.00011
       1016    38 -109.094580 -109.094280    0.000300   1.558    0.00013    0.00011
       1017    38 -109.094585 -109.094299    0.000285   1.558    0.00012    0.00012
       1018    38 -109.094591 -109.094332    0.000259   1.558    0.00011    0.00012
       1019    38 -109.094596 -109.094375    0.000221   1.558    0.00010    0.00012
       1020    38 -109.094602 -109.094428    0.000174   1.558    0.00010    0.00012
       1021    38 -109.094607 -109.094485    0.000122   1.558    0.00010    0.00012
       1022    35 -109.094611 -109.094542    0.000069   1.558    0.00010    0.00011
       1023    35 -109.094613 -109.094598    0.000015   1.558    0.00011    0.00010
       1024    35 -109.094615 -109.094650    0.000035   1.558    0.00012    0.00009
       1025    35 -109.094614 -109.094697    0.000083   1.558    0.00013    0.00009
       1026    34 -109.094612 -109.094739    0.000127   1.558    0.00013    0.00008
       1027    35 -109.094609 -109.094774    0.000166   1.558    0.00014    0.00008
       1028    35 -109.094604 -109.094802    0.000198   1.558    0.00014    0.00008
       1029    34 -109.094597 -109.094820    0.000222   1.558    0.00014    0.00008
       1030    35 -109.094590 -109.094827    0.000237   1.558    0.00014    0.00008
       1031    37 -109.094583 -109.094829    0.000246   1.558    0.00013    0.00009
       1032    35 -109.094575 -109.094810    0.000235   1.558    0.00013    0.00009
       1033    35 -109.094568 -109.094785    0.000217   1.558    0.00012    0.00009
       1034    34 -109.094562 -109.094748    0.000186   1.558    0.00011    0.00009
       1035    35 -109.094556 -109.094705    0.000149   1.558    0.00011    0.00009
       1036    33 -109.094552 -109.094657    0.000106   1.558    0.00010    0.00008
       1037    35 -109.094549 -109.094607    0.000058   1.558    0.00010    0.00008

        ==> Orbital Optimization <==

            Jacobi Optimization converged.
            Total energy change: -8.045760e-09


      v2RDM iterations converged!

      v2RDM total spin [S(S+1)]:            -0.000002
    * v2RDM total energy:           -109.094549461296



Properties will be evaluated at   0.000000,   0.000000,   0.000000 Bohr


Properties will be evaluated at   0.000000,   0.000000,   0.000000 Bohr

  Mulliken Charges: (a.u.)

   Center  Symbol    Alpha    Beta     Spin     Total
       1     N     3.50000  3.50000  0.00000 -0.00000
       2     N     3.50000  3.50000  0.00000 -0.00000

   Total alpha =  7.00000, Total beta =  7.00000, Total charge = -0.00000

 # Natural Orbital Occupation Numbers (alpha) #
 Irrep: 1
      1:  1.0000000
      2:  1.0000000
      3:  0.9906774
      4:  0.0000000
      5:  0.0000000
      6:  0.0000000
      7:  0.0000000

 Irrep: 2
      1:  0.0000000

 Irrep: 3
      1:  0.0328075
      2:  0.0000000
      3:  0.0000000

 Irrep: 4
      1:  0.0328072
      2:  0.0000000
      3:  0.0000000

 Irrep: 5
      1:  0.0000000

 Irrep: 6
      1:  1.0000000
      2:  1.0000000
      3:  0.0093238
      4:  0.0000000
      5:  0.0000000
      6:  0.0000000
      7:  0.0000000

 Irrep: 7
      1:  0.9671920
      2:  0.0000000
      3:  0.0000000

 Irrep: 8
      1:  0.9671921
      2:  0.0000000
      3:  0.0000000


 # Natural Orbital Occupation Numbers (beta) #
 Irrep: 1
      1:  1.0000000
      2:  1.0000000
      3:  0.9905899
      4:  0.0000000
      5:  0.0000000
      6:  0.0000000
      7:  0.0000000

 Irrep: 2
      1:  0.0000000

 Irrep: 3
      1:  0.0327752
      2:  0.0000000
      3:  0.0000000

 Irrep: 4
      1:  0.0327750
      2:  0.0000000
      3:  0.0000000

 Irrep: 5
      1:  0.0000000

 Irrep: 6
      1:  1.0000000
      2:  1.0000000
      3:  0.0094307
      4:  0.0000000
      5:  0.0000000
      6:  0.0000000
      7:  0.0000000

 Irrep: 7
      1:  0.9672146
      2:  0.0000000
      3:  0.0000000

 Irrep: 8
      1:  0.9672147
      2:  0.0000000
      3:  0.0000000


*** tstop() called on ubuntu at Wed Aug 19 09:05:09 2015
Module time:
	user time   =      12.16 seconds =       0.20 minutes
	system time =       0.13 seconds =       0.00 minutes
	total time  =          3 seconds =       0.05 minutes
Total time:
	user time   =      37.75 seconds =       0.63 minutes
	system time =       0.54 seconds =       0.01 minutes
	total time  =         10 seconds =       0.17 minutes

*** PSI4 exiting successfully. Buy a developer a beer!
