    -----------------------------------------------------------------------
          Psi4: An Open-Source Ab Initio Electronic Structure Package
                              Psi4  Driver

                          Git: Rev {detached?}  

    J. M. Turney, A. C. Simmonett, R. M. Parrish, E. G. Hohenstein,
    F. A. Evangelista, J. T. Fermann, B. J. Mintz, L. A. Burns, J. J. Wilke,
    M. L. Abrams, N. J. Russ, M. L. Leininger, C. L. Janssen, E. T. Seidl,
    W. D. Allen, H. F. Schaefer, R. A. King, E. F. Valeev, C. D. Sherrill,
    and T. D. Crawford, WIREs Comput. Mol. Sci. 2, 556-565 (2012)
    (doi: 10.1002/wcms.93)

                         Additional Contributions by
    A. E. DePrince, M. Saitow, U. Bozkaya, A. Yu. Sokolov
    -----------------------------------------------------------------------


    Psi4 started on: Wed Aug 19 09:11:13 2015

    Process ID:  20045
    PSI4DATADIR: /apps/software/psi4public-master/install/share/psi
    Memory level set to 256.000 MB

  ==> Input File <==

--------------------------------------------------------------------------

# PYTHONPATH must include directory above plugin directory.
#     Define either externally or here, then import plugin.
sys.path.insert(0, '../..')
import v2rdm_casscf

molecule mol {
0 1
n
n 1 r
}

set {
  guess sad
  basis 6-31g
  scf_type df
  df_basis_scf cc-pvdz-jkfit 
  cholesky_tolerance 1.0e-12
  d_convergence 1e-10
  maxiter 500
  reference rhf
  #active space[ 1, 0, 1, 1, 0, 1, 1, 1 ]
  frozen_docc  [ 2, 0, 0, 0, 0, 2, 0, 0 ]
  frozen_uocc  [ 2, 0, 1, 1, 0, 2, 1, 1 ]
  #frozen_docc  [  4 ]
  #frozen_uocc  [ 18 ]
}
set v2rdm_casscf {
  positivity dqg
  constrain_spin true
  constrain_d3   false
  spin_adapt_g2  false
  spin_adapt_q2  false
  r_convergence  1e-5
  e_convergence  1e-5
  cg_convergence 1e-6
  jacobi_write 1
  jacobi_nthread 8
  maxiter 20000
}

activate(mol)
mol.r = 0.5
energy('v2rdm-casscf')
mol.r = 1.1
energy('v2rdm-casscf')
--------------------------------------------------------------------------
/home/greg/v2rdm_casscf/v2rdm_casscf.so loaded.
Setting geometry variable r to 0.500000

*** tstart() called on ubuntu
*** at Wed Aug 19 09:11:13 2015


         ---------------------------------------------------------
                                   SCF
            by Justin Turney, Rob Parrish, and Andy Simmonett
                              RHF Reference
                        1 Threads,    256 MiB Core
         ---------------------------------------------------------

  ==> Geometry <==

    Molecular point group: d2h
    Full point group: D_inf_h

    Geometry (in Angstrom), charge = 0, multiplicity = 1:

       Center              X                  Y                   Z       
    ------------   -----------------  -----------------  -----------------
           N          0.000000000000     0.000000000000    -0.250000000000
           N          0.000000000000     0.000000000000     0.250000000000

  Running in d2h symmetry.

  Rotational constants: A = ************  B =      9.63082  C =      9.63082 [cm^-1]
  Rotational constants: A = ************  B = 288724.60708  C = 288724.60708 [MHz]
  Nuclear repulsion =   51.859366441820001

  Charge       = 0
  Multiplicity = 1
  Electrons    = 14
  Nalpha       = 7
  Nbeta        = 7

  ==> Algorithm <==

  SCF Algorithm Type is DF.
  DIIS enabled.
  MOM disabled.
  Fractional occupation disabled.
  Guess Type is SAD.
  Energy threshold   = 1.00e-08
  Density threshold  = 1.00e-10
  Integral threshold = 0.00e+00

  ==> Primary Basis <==

  Basis Set: 6-31G
    Number of shells: 10
    Number of basis function: 18
    Number of Cartesian functions: 18
    Spherical Harmonics?: false
    Max angular momentum: 1

  ==> Pre-Iterations <==

   -------------------------------------------------------
    Irrep   Nso     Nmo     Nalpha   Nbeta   Ndocc  Nsocc
   -------------------------------------------------------
     Ag         5       5       0       0       0       0
     B1g        0       0       0       0       0       0
     B2g        2       2       0       0       0       0
     B3g        2       2       0       0       0       0
     Au         0       0       0       0       0       0
     B1u        5       5       0       0       0       0
     B2u        2       2       0       0       0       0
     B3u        2       2       0       0       0       0
   -------------------------------------------------------
    Total      18      18       7       7       7       0
   -------------------------------------------------------

 OEINTS: Overlap, kinetic, potential, dipole, and quadrupole integrals
         stored in file 35.

  ==> Integral Setup <==

  ==> DFJK: Density-Fitted J/K Matrices <==

    J tasked:                  Yes
    K tasked:                  Yes
    wK tasked:                  No
    OpenMP threads:              1
    Integrals threads:           1
    Memory (MB):               183
    Algorithm:                Core
    Integral Cache:           SAVE
    Schwarz Cutoff:          1E-12
    Fitting Condition:       1E-12

   => Auxiliary Basis Set <=

  Basis Set: CC-PVDZ-JKFIT
    Number of shells: 48
    Number of basis function: 162
    Number of Cartesian functions: 162
    Spherical Harmonics?: false
    Max angular momentum: 3

  Minimum eigenvalue in the overlap matrix is 8.6499039983E-05.
  Using Symmetric Orthogonalization.
  SCF Guess: Superposition of Atomic Densities via on-the-fly atomic UHF.

  ==> Iterations <==

                           Total Energy        Delta E     RMS |[F,P]|

   @DF-RHF iter   0:  -108.40178736251504   -1.08402e+02   9.14119e-01 
   @DF-RHF iter   1:  -102.90731972653928    5.49447e+00   3.45305e-02 
   @DF-RHF iter   2:  -102.95080757449158   -4.34878e-02   6.90499e-03 DIIS
   @DF-RHF iter   3:  -102.95277766417770   -1.97009e-03   1.79604e-03 DIIS
   @DF-RHF iter   4:  -102.95295886386170   -1.81200e-04   1.57368e-04 DIIS
   @DF-RHF iter   5:  -102.95296008806095   -1.22420e-06   1.94322e-05 DIIS
   @DF-RHF iter   6:  -102.95296010881979   -2.07588e-08   1.13648e-06 DIIS
   @DF-RHF iter   7:  -102.95296010889000   -7.02016e-11   1.49345e-07 DIIS
   @DF-RHF iter   8:  -102.95296010889122   -1.22213e-12   2.72655e-09 DIIS
   @DF-RHF iter   9:  -102.95296010889122    0.00000e+00   1.63290e-10 DIIS
   @DF-RHF iter  10:  -102.95296010889130   -8.52651e-14   1.48118e-11 DIIS

  ==> Post-Iterations <==

    Orbital Energies (a.u.)
    -----------------------

    Doubly Occupied:                                                      

       1Ag   -16.528397     1B1u  -15.835366     2Ag    -1.471182  
       1B3u   -1.190891     1B2u   -1.190891     2B1u   -0.544169  
       3Ag    -0.522554  

    Virtual:                                                              

       1B3g    0.526577     1B2g    0.526577     2B2u    0.567627  
       2B3u    0.567627     3B1u    0.664595     4Ag     0.709841  
       5Ag     1.005831     4B1u    1.507031     2B3g    1.639737  
       2B2g    1.639737     5B1u    9.841642  

    Final Occupation by Irrep:
             Ag   B1g   B2g   B3g    Au   B1u   B2u   B3u 
    DOCC [     3,    0,    0,    0,    0,    2,    1,    1 ]

  Energy converged.

  @DF-RHF Final Energy:  -102.95296010889130

   => Energetics <=

    Nuclear Repulsion Energy =             51.8593664418200007
    One-Electron Energy =                -235.0577542288081645
    Two-Electron Energy =                  80.2454276780968598
    DFT Exchange-Correlation Energy =       0.0000000000000000
    Empirical Dispersion Energy =           0.0000000000000000
    PCM Polarization Energy =               0.0000000000000000
    EFP Energy =                            0.0000000000000000
    Total Energy =                       -102.9529601088913182

    Alert: EFP and PCM quantities not currently incorporated into SCF psivars.

Properties will be evaluated at   0.000000,   0.000000,   0.000000 Bohr
  ==> Properties <==


Properties computed using the SCF density matrix

  Nuclear Dipole Moment: (a.u.)
     X:     0.0000      Y:     0.0000      Z:     0.0000

  Electronic Dipole Moment: (a.u.)
     X:     0.0000      Y:     0.0000      Z:     0.0000

  Dipole Moment: (a.u.)
     X:     0.0000      Y:     0.0000      Z:     0.0000     Total:     0.0000

  Dipole Moment: (Debye)
     X:     0.0000      Y:     0.0000      Z:     0.0000     Total:     0.0000


  Saving occupied orbitals to File 180.

*** tstop() called on ubuntu at Wed Aug 19 09:11:13 2015
Module time:
	user time   =       0.30 seconds =       0.01 minutes
	system time =       0.01 seconds =       0.00 minutes
	total time  =          0 seconds =       0.00 minutes
Total time:
	user time   =       0.30 seconds =       0.01 minutes
	system time =       0.01 seconds =       0.00 minutes
	total time  =          0 seconds =       0.00 minutes
Reading options from the V2RDM_CASSCF block
Calling plugin v2rdm_casscf.so.

*** tstart() called on ubuntu
*** at Wed Aug 19 09:11:13 2015



        *******************************************************
        *                                                     *
        *    v-2RDM                                           *
        *                                                     *
        *    Ground-state variational 2-RDM optimization      *
        *    using a boundary-point semidefinite solver       *
        *                                                     *
        *    Eugene DePrince                                  *
        *                                                     *
        *******************************************************

  ==> Input parameters <==

        Freeze core orbitals?                 yes
        Number of frozen core orbitals:         4
        Number of active occupied orbitals:     3
        Number of active virtual orbitals:      3
        Number of frozen virtual orbitals:      8
        r_convergence:                  1.000e-05
        e_convergence:                  1.000e-05
        cg_convergence:                 1.000e-06
        maxiter:                            20000
        cg_maxiter:                         10000

  ==> Memory requirements <==

        D2:                          0.00 mb
        Q2:                          0.00 mb
        G2:                          0.01 mb

        Total number of variables:           1500
        Total number of constraints:         1282
        Total memory requirements:        0.30 mb

    ==> Transform three-electron integrals <==


        Time for integral transformation:     0.08 s


    reference energy:        -102.952960108891
    frozen core energy:      -138.050236420300
    initial 2-RDM energy:     -73.220069159786

      oiter iiter        E(p)        E(d)      E gap)      mu     eps(p)     eps(d)
          0    71 -113.685121  144.513977  258.199098   1.000   50.73992   72.62442
          1    40  -82.917134 -268.204313  185.287178   1.000    9.55033   30.76590
          2    47 -110.128249 -113.171968    3.043719   1.000   13.99185    6.56331
          3    39  -97.840418 -103.430032    5.589614   1.000    6.27615    3.71501
          4    42 -101.626102 -101.924280    0.298179   1.000    3.34135    2.97458
          5    42  -98.635611  -99.658630    1.023020   1.000    1.77334    2.12662
          6    35 -100.949172  -98.832404    2.116768   1.000    1.27033    1.55042
          7    38 -100.338610  -97.577386    2.761224   1.000    0.81843    1.45642
          8    37 -101.263614  -99.878898    1.384715   1.000    0.59375    0.87592
          9    42 -100.954004 -100.152217    0.801788   1.000    0.24253    0.67638
         10    42 -101.336863 -100.119320    1.217542   1.000    0.22216    0.54022
         11    38 -101.371348  -99.807572    1.563776   1.000    0.19821    0.46235
         12    35 -101.653462  -99.825075    1.828386   1.000    0.16638    0.42301
         13    41 -101.755189 -100.030732    1.724456   1.000    0.18324    0.39237
         14    40 -101.902188 -100.298581    1.603608   1.000    0.16694    0.37603
         15    40 -101.979158 -100.436860    1.542298   1.000    0.15770    0.36171
         16    37 -102.097062 -100.470204    1.626858   1.000    0.16628    0.34850
         17    38 -102.194117 -100.537758    1.656359   1.000    0.16606    0.33802
         18    33 -102.299722 -100.594779    1.704944   1.000    0.16192    0.33110
         19    38 -102.390416 -100.745179    1.645237   1.000    0.15323    0.32092
         20    38 -102.466126 -100.961991    1.504135   1.000    0.16922    0.29579
         21    40 -102.513932 -101.323931    1.190001   1.000    0.20932    0.25036
         22    40 -102.548749 -101.831225    0.717524   1.000    0.21939    0.20125
         23    41 -102.562720 -102.292075    0.270645   1.000    0.19644    0.18362
         24    38 -102.568524 -102.548175    0.020349   1.000    0.15254    0.18261
         25    33 -102.571449 -102.562235    0.009214   1.000    0.12403    0.17604
         26    38 -102.582878 -102.426105    0.156773   1.000    0.10953    0.16666
         27    40 -102.600075 -102.199471    0.400604   1.000    0.09571    0.16153
         28    38 -102.628636 -101.974288    0.654348   1.000    0.07955    0.16054
         29    34 -102.660722 -101.846140    0.814581   1.000    0.06975    0.15697
         30    34 -102.689896 -101.803222    0.886674   1.000    0.08328    0.14682
         31    39 -102.714469 -101.936953    0.777516   1.000    0.12075    0.13098
         32    38 -102.732164 -102.179532    0.552632   1.000    0.09974    0.12830
         33    35 -102.733463 -102.338595    0.394868   1.000    0.04169    0.13450
         34    33 -102.735499 -102.342946    0.392553   1.000    0.03504    0.13224
         35    34 -102.744116 -102.261367    0.482750   1.000    0.05935    0.12544
         36    35 -102.760341 -102.177184    0.583157   1.000    0.05744    0.12295
         37    33 -102.779487 -102.142021    0.637466   1.000    0.04165    0.12414
         38    33 -102.799551 -102.162923    0.636628   1.000    0.03064    0.12476
         39    35 -102.817244 -102.212986    0.604258   1.000    0.02562    0.12423
         40    34 -102.832089 -102.254639    0.577449   1.000    0.02097    0.12360
         41    33 -102.845437 -102.264655    0.580782   1.000    0.02229    0.12305
         42    33 -102.858915 -102.242341    0.616574   1.000    0.02722    0.12251
         43    33 -102.872997 -102.204075    0.668923   1.000    0.02697    0.12229
         44    32 -102.888522 -102.170643    0.717879   1.000    0.02021    0.12245
         45    32 -102.904080 -102.155903    0.748177   1.000    0.01138    0.12263
         46    34 -102.919858 -102.162537    0.757321   1.000    0.01085    0.12253
         47    37 -102.934676 -102.182887    0.751790   1.000    0.01593    0.12224
         48    38 -102.949198 -102.205247    0.743951   1.000    0.01787    0.12190
         49    32 -102.960849 -102.222048    0.738801   1.000    0.03824    0.11726
         50    35 -102.975963 -102.298102    0.677861   1.000    0.11156    0.08958
         51    41 -103.004286 -102.654311    0.349975   1.000    0.14489    0.03624
         52    47 -103.002810 -103.094813    0.092003   1.000    0.12087    0.03788
         53    41 -102.984250 -103.379490    0.395240   1.000    0.06555    0.05317
         54    38 -102.960515 -103.442064    0.481549   1.000    0.02769    0.04963
         55    41 -102.940826 -103.316484    0.375658   1.000    0.05713    0.03670
         56    41 -102.931505 -103.090696    0.159191   1.000    0.07254    0.02030
         57    42 -102.935146 -102.869208    0.065937   1.000    0.06080    0.01396
         58    42 -102.947307 -102.732588    0.214719   1.000    0.03242    0.02321
         59    32 -102.961593 -102.713469    0.248124   1.000    0.01644    0.02528
         60    41 -102.970825 -102.784657    0.186168   1.000    0.03333    0.01880
         61    40 -102.974465 -102.901276    0.073189   1.000    0.04066    0.00743
         62    47 -102.971542 -103.013546    0.042005   1.000    0.03367    0.00657
         63    47 -102.964816 -103.080614    0.115798   1.000    0.01933    0.01264
         64    32 -102.957789 -103.088049    0.130260   1.000    0.01306    0.01326
         65    39 -102.953246 -103.047690    0.094444   1.000    0.01965    0.00935
         66    41 -102.952032 -102.984444    0.032412   1.000    0.02223    0.00424
         67    42 -102.953979 -102.926843    0.027136   1.000    0.01851    0.00479
         68    41 -102.957523 -102.895166    0.062357   1.000    0.01279    0.00760
         69    36 -102.959726 -102.899901    0.059825   1.000    0.01186    0.00684
         70    42 -102.962501 -102.918647    0.043855   1.000    0.01354    0.00506
         71    41 -102.963243 -102.948675    0.014568   1.000    0.01428    0.00306
         72    47 -102.962394 -102.974504    0.012110   1.000    0.01275    0.00307
         73    43 -102.960193 -102.990332    0.030140   1.000    0.01081    0.00405
         74    35 -102.958141 -102.992282    0.034140   1.000    0.00979    0.00416
         75    41 -102.956706 -102.983278    0.026572   1.000    0.01003    0.00335
         76    41 -102.956180 -102.967800    0.011620   1.000    0.01021    0.00236
         77    42 -102.956607 -102.952703    0.003904   1.000    0.00980    0.00218
         78    41 -102.957588 -102.942788    0.014800   1.000    0.00919    0.00258
         79    38 -102.958742 -102.940471    0.018271   1.000    0.00901    0.00267
         80    42 -102.959607 -102.944755    0.014851   1.000    0.00922    0.00238
         81    42 -102.960052 -102.953442    0.006610   1.000    0.00932    0.00186
         82    43 -102.959780 -102.961945    0.002164   1.000    0.00905    0.00175
         83    42 -102.959319 -102.967733    0.008413   1.000    0.00863    0.00187
         84    41 -102.958639 -102.969536    0.010897   1.000    0.00832    0.00190
         85    41 -102.958179 -102.967458    0.009280   1.000    0.00817    0.00174
         86    41 -102.960616 -102.963018    0.002403   1.000    0.00708    0.00171
         87    42 -102.960535 -102.959847    0.000688   1.000    0.00661    0.00146
         88    42 -102.961490 -102.956201    0.005289   1.000    0.00637    0.00140
         89    42 -102.960983 -102.954735    0.006248   1.000    0.00627    0.00136
         90    41 -102.961318 -102.954116    0.007202   1.000    0.00622    0.00132
         91    42 -102.961103 -102.955336    0.005767   1.000    0.00625    0.00125
         92    42 -102.961196 -102.957047    0.004148   1.000    0.00621    0.00117
         93    42 -102.961096 -102.959024    0.002072   1.000    0.00614    0.00112
         94    42 -102.961105 -102.960409    0.000696   1.000    0.00602    0.00111
         95    42 -102.961039 -102.961033    0.000006   1.000    0.00590    0.00109
         96    42 -102.961019 -102.960791    0.000228   1.000    0.00581    0.00107
         97    42 -102.960991 -102.960028    0.000963   1.000    0.00571    0.00107
         98    42 -102.961018 -102.959219    0.001799   1.000    0.00566    0.00101
         99    42 -102.960977 -102.958485    0.002492   1.000    0.00560    0.00095
        100    43 -102.960957 -102.957751    0.003206   1.000    0.00543    0.00113
        101    42 -102.961056 -102.958309    0.002747   1.000    0.00529    0.00103
        102    42 -102.961022 -102.959264    0.001758   1.000    0.00508    0.00106
        103    41 -102.961067 -102.960688    0.000379   1.000    0.00484    0.00107
        104    42 -102.960934 -102.961992    0.001058   1.000    0.00476    0.00110
        105    41 -102.960931 -102.962619    0.001688   1.000    0.00475    0.00096
        106    47 -102.960875 -102.961414    0.000539   1.000    0.00480    0.00085
        107    47 -102.960857 -102.959802    0.001055   1.000    0.00480    0.00088
        108    47 -102.960833 -102.958183    0.002650   1.000    0.00465    0.00088
        109    41 -102.960791 -102.957646    0.003145   1.000    0.00454    0.00075
        110    47 -102.960821 -102.956914    0.003907   1.000    0.00446    0.00071
        111    47 -102.960790 -102.957020    0.003770   1.000    0.00440    0.00067
        112    47 -102.960787 -102.957151    0.003636   1.000    0.00437    0.00066
        113    47 -102.960762 -102.957504    0.003258   1.000    0.00433    0.00074
        114    42 -102.960698 -102.958187    0.002512   1.000    0.00431    0.00065
        115    47 -102.960699 -102.958225    0.002474   1.000    0.00430    0.00062
        116    47 -102.960661 -102.958453    0.002207   1.000    0.00427    0.00060
        117    47 -102.960655 -102.958499    0.002156   1.000    0.00424    0.00059
        118    47 -102.960640 -102.958636    0.002004   1.000    0.00418    0.00068
        119    42 -102.960585 -102.959119    0.001466   1.000    0.00416    0.00060
        120    47 -102.960593 -102.958919    0.001674   1.000    0.00415    0.00057
        121    47 -102.960517 -102.958842    0.001676   1.000    0.00412    0.00057
        122    47 -102.960368 -102.958575    0.001793   1.000    0.00414    0.00070
        123    42 -102.960312 -102.958815    0.001497   1.000    0.00413    0.00065
        124    47 -102.960279 -102.958953    0.001326   1.000    0.00414    0.00056
        125    47 -102.960258 -102.958797    0.001461   1.000    0.00412    0.00052
        126    53 -102.960233 -102.958464    0.001769   1.000    0.00409    0.00051
        127    54 -102.960209 -102.958158    0.002051   1.000    0.00406    0.00049
        128    53 -102.960192 -102.957867    0.002325   1.000    0.00403    0.00056
        129    47 -102.960220 -102.957875    0.002345   1.000    0.00400    0.00066
        130    41 -102.960283 -102.958292    0.001991   1.000    0.00399    0.00053
        131    47 -102.960230 -102.958721    0.001510   1.000    0.00399    0.00048
        132    48 -102.960236 -102.958620    0.001616   1.000    0.00400    0.00046
        133    47 -102.960197 -102.958399    0.001798   1.000    0.00399    0.00045
        134    51 -102.960165 -102.958072    0.002094   1.000    0.00397    0.00044
        135    47 -102.960143 -102.957848    0.002295   1.000    0.00393    0.00048
        136    46 -102.960157 -102.957784    0.002373   1.000    0.00390    0.00047
        137    45 -102.960164 -102.957973    0.002190   1.000    0.00387    0.00062
        138    41 -102.960192 -102.958429    0.001763   1.000    0.00387    0.00062
        139    41 -102.960227 -102.959019    0.001208   1.000    0.00387    0.00062
        140    41 -102.960242 -102.959553    0.000689   1.000    0.00392    0.00057
        141    47 -102.960197 -102.959792    0.000406   1.000    0.00399    0.00051
        142    47 -102.960182 -102.959679    0.000503   1.000    0.00405    0.00044
        143    52 -102.960142 -102.959251    0.000891   1.000    0.00410    0.00041
        144    51 -102.960129 -102.958641    0.001488   1.000    0.00411    0.00038
        145    52 -102.960104 -102.957998    0.002106   1.000    0.00409    0.00036
        146    54 -102.960089 -102.957423    0.002667   1.000    0.00405    0.00035
        147    52 -102.960085 -102.956973    0.003112   1.000    0.00399    0.00036
        148    52 -102.960083 -102.956685    0.003397   1.000    0.00394    0.00037
        149    53 -102.960086 -102.956578    0.003508   1.000    0.00388    0.00039
        150    47 -102.960086 -102.956705    0.003382   1.000    0.00384    0.00042
        151    47 -102.960029 -102.957065    0.002964   1.000    0.00385    0.00039
        152    47 -102.960051 -102.957545    0.002507   1.000    0.00382    0.00035
        153    47 -102.960022 -102.957914    0.002108   1.000    0.00383    0.00033
        154    47 -102.960018 -102.958214    0.001804   1.000    0.00382    0.00033
        155    47 -102.959993 -102.958412    0.001581   1.000    0.00383    0.00041
        156    47 -102.959995 -102.958649    0.001347   1.000    0.00386    0.00039
        157    46 -102.959983 -102.958813    0.001170   1.000    0.00391    0.00048
        158    42 -102.959996 -102.959029    0.000966   1.000    0.00399    0.00038
        159    45 -102.959964 -102.958952    0.001012   1.000    0.00403    0.00035
        160    47 -102.959950 -102.958702    0.001247   1.000    0.00405    0.00046
        161    41 -102.959961 -102.958529    0.001432   1.000    0.00407    0.00037
        162    41 -102.959944 -102.958441    0.001503   1.000    0.00410    0.00035
        163    41 -102.959946 -102.958306    0.001640   1.000    0.00410    0.00043
        164    41 -102.959935 -102.958271    0.001664   1.000    0.00407    0.00035
        165    45 -102.960062 -102.958084    0.001978   1.000    0.00400    0.00031
        166    45 -102.960078 -102.957990    0.002087   1.000    0.00401    0.00029
        167    44 -102.960036 -102.957700    0.002336   1.000    0.00402    0.00028
        168    46 -102.960057 -102.957359    0.002698   1.000    0.00402    0.00027
        169    47 -102.960043 -102.957137    0.002906   1.000    0.00398    0.00027
        170    45 -102.960053 -102.957026    0.003026   1.000    0.00394    0.00027
        171    45 -102.960046 -102.957063    0.002982   1.000    0.00390    0.00027
        172    45 -102.960045 -102.957167    0.002877   1.000    0.00387    0.00026
        173    45 -102.960036 -102.957303    0.002733   1.000    0.00385    0.00026
        174    47 -102.960028 -102.957433    0.002595   1.000    0.00384    0.00025
        175    45 -102.960018 -102.957558    0.002460   1.000    0.00383    0.00025
        176    48 -102.960005 -102.957679    0.002325   1.000    0.00381    0.00025
        177    45 -102.959908 -102.957797    0.002111   1.000    0.00373    0.00034
        178    43 -102.959925 -102.958019    0.001906   1.000    0.00374    0.00044
        179    41 -102.959917 -102.958444    0.001473   1.000    0.00381    0.00036
        180    45 -102.959937 -102.958587    0.001350   1.000    0.00391    0.00029
        181    48 -102.959920 -102.958545    0.001375   1.000    0.00398    0.00027
        182    45 -102.960073 -102.958279    0.001795   1.000    0.00395    0.00028
        183    42 -102.960125 -102.958071    0.002054   1.000    0.00397    0.00025
        184    47 -102.960069 -102.957787    0.002282   1.000    0.00395    0.00023
        185    48 -102.960043 -102.957476    0.002567   1.000    0.00386    0.00027
        186    47 -102.959976 -102.957397    0.002578   1.000    0.00380    0.00027
        187    42 -102.959984 -102.957385    0.002600   1.000    0.00378    0.00024
        188    47 -102.959941 -102.957372    0.002569   1.000    0.00370    0.00023
        189    47 -102.959850 -102.957324    0.002525   1.000    0.00343    0.00035
        190    42 -102.959881 -102.957409    0.002472   1.000    0.00348    0.00028
        191    42 -102.959859 -102.957456    0.002403   1.000    0.00343    0.00023
        192    43 -102.959875 -102.957557    0.002318   1.000    0.00346    0.00022
        193    47 -102.959859 -102.957634    0.002226   1.000    0.00345    0.00021
        194    48 -102.959854 -102.957696    0.002159   1.000    0.00347    0.00021
        195    47 -102.959841 -102.957716    0.002125   1.000    0.00347    0.00021
        196    47 -102.959831 -102.957711    0.002120   1.000    0.00347    0.00021
        197    47 -102.959820 -102.957681    0.002139   1.000    0.00346    0.00020
        198    47 -102.959731 -102.957636    0.002095   1.000    0.00326    0.00029
        199    42 -102.959716 -102.957686    0.002030   1.000    0.00324    0.00024

        ==> Orbital Optimization <==

            Jacobi Optimization converged.
            Total energy change: -2.764154e-02

        200    47 -102.987342 -102.626211    0.361132  15.022    0.00323    0.00021
        201    87 -102.985508 -101.628731    1.356777  15.022    0.01866    0.28943
        202    61 -102.999740 -101.995038    1.004702  15.022    0.01809    0.23238
        203    59 -103.001405 -102.915796    0.085609  15.022    0.01781    0.18703
        204    55 -103.001295 -103.552429    0.551134  15.022    0.01363    0.18809
        205    53 -102.999692 -103.852496    0.852803  15.022    0.00931    0.17957
        206    54 -102.998683 -103.772619    0.773936  15.022    0.00953    0.16798
        207    56 -102.996114 -103.539532    0.543417  15.022    0.01217    0.15118
        208    56 -103.006125 -103.182311    0.176186  15.022    0.01242    0.13785
        209    51 -103.008581 -103.021111    0.012530  15.022    0.00986    0.12525
        210    56 -103.005493 -102.943315    0.062177  15.022    0.00717    0.12080
        211    56 -103.007953 -103.005424    0.002530  15.022    0.00678    0.11365
        212    55 -103.007876 -103.166430    0.158554  15.022    0.00748    0.10006
        213    55 -103.008604 -103.301876    0.293272  15.022    0.00676    0.09393
        214    53 -103.007344 -103.417157    0.409813  15.022    0.00583    0.09406
        215    47 -103.005835 -103.484076    0.478241  15.022    0.00512    0.09520
        216    53 -103.005526 -103.529409    0.523884  15.022    0.00473    0.09165
        217    58 -103.004270 -103.516910    0.512641  15.022    0.00467    0.08947
        218    58 -103.003368 -103.495939    0.492571  15.022    0.00503    0.08676
        219    58 -103.002252 -103.462908    0.460656  15.022    0.00501    0.08597
        220    54 -103.001588 -103.450505    0.448916  15.022    0.00541    0.08046
        221    53 -103.000425 -103.413145    0.412720  15.022    0.00554    0.07436
        222    54 -102.999814 -103.357396    0.357582  15.022    0.00600    0.06740
        223    49 -102.999232 -103.274865    0.275633  15.022    0.00608    0.06098
        224    56 -102.998973 -103.190245    0.191272  15.022    0.00600    0.05603
        225    49 -102.999040 -103.103508    0.104468  15.022    0.00584    0.05269
        226    49 -102.999067 -103.019865    0.020797  15.022    0.00512    0.05164
        227    54 -102.999536 -102.954008    0.045529  15.022    0.00451    0.05136
        228    48 -102.999916 -102.906586    0.093330  15.022    0.00362    0.05150
        229    49 -103.000612 -102.883578    0.117034  15.022    0.00308    0.05101
        230    48 -103.001442 -102.877956    0.123486  15.022    0.00273    0.04989
        231    47 -103.002299 -102.882483    0.119816  15.022    0.00255    0.04806
        232    47 -103.002985 -102.894571    0.108415  15.022    0.00248    0.04579
        233    48 -103.003708 -102.918568    0.085140  15.022    0.00248    0.04296
        234    54 -103.004103 -102.952174    0.051929  15.022    0.00258    0.03969
        235    54 -103.004531 -102.996182    0.008349  15.022    0.00259    0.03610
        236    53 -103.004591 -103.037069    0.032478  15.022    0.00263    0.03333
        237    53 -103.004734 -103.080907    0.076173  15.022    0.00259    0.03154
        238    53 -103.004508 -103.118058    0.113551  15.022    0.00250    0.03104
        239    53 -103.004202 -103.152580    0.148377  15.022    0.00237    0.03162
        240    53 -103.003733 -103.180005    0.176272  15.022    0.00225    0.03271
        241    51 -103.003202 -103.199811    0.196609  15.022    0.00218    0.03368
        242    47 -103.002613 -103.210678    0.208065  15.022    0.00219    0.03405
        243    54 -103.002029 -103.212322    0.210293  15.022    0.00231    0.03362
        244    54 -103.001470 -103.204773    0.203303  15.022    0.00250    0.03232
        245    54 -103.000978 -103.187768    0.186790  15.022    0.00271    0.03040
        246    54 -103.000555 -103.165221    0.164667  15.022    0.00290    0.02873
        247    49 -102.999672 -103.141289    0.141617  15.022    0.00246    0.02625
        248    54 -102.999176 -103.113398    0.114222  15.022    0.00235    0.02409
        249    54 -102.999199 -103.085836    0.086637  15.022    0.00247    0.02173
        250    54 -102.999090 -103.049244    0.050153  15.022    0.00253    0.02077
        251    54 -102.999242 -103.018209    0.018967  15.022    0.00256    0.02111
        252    54 -102.999275 -102.991934    0.007341  15.022    0.00228    0.02191
        253    53 -102.999389 -102.969127    0.030262  15.022    0.00208    0.02154
        254    53 -102.999733 -102.951690    0.048043  15.022    0.00200    0.02129
        255    54 -103.000119 -102.940443    0.059675  15.022    0.00203    0.02003
        256    54 -103.000535 -102.933103    0.067432  15.022    0.00200    0.01940
        257    54 -103.000903 -102.929750    0.071153  15.022    0.00194    0.01906
        258    57 -103.001270 -102.934091    0.067179  15.022    0.00188    0.01785
        259    53 -103.001595 -102.942321    0.059275  15.022    0.00182    0.01637
        260    54 -103.001860 -102.957043    0.044817  15.022    0.00178    0.01497
        261    53 -103.002028 -102.974676    0.027353  15.022    0.00174    0.01371
        262    53 -103.002089 -102.994539    0.007550  15.022    0.00174    0.01253
        263    53 -103.002000 -103.014671    0.012672  15.022    0.00168    0.01202
        264    52 -103.001855 -103.034500    0.032645  15.022    0.00166    0.01204
        265    53 -103.001615 -103.051471    0.049857  15.022    0.00161    0.01232
        266    54 -103.001287 -103.065182    0.063894  15.022    0.00154    0.01243
        267    52 -103.001029 -103.075914    0.074885  15.022    0.00156    0.01216
        268    53 -103.000721 -103.079894    0.079173  15.022    0.00155    0.01189
        269    54 -103.000464 -103.080839    0.080375  15.022    0.00157    0.01167
        270    54 -103.000213 -103.077882    0.077669  15.022    0.00158    0.01146
        271    54 -103.000007 -103.072403    0.072396  15.022    0.00159    0.01119
        272    54 -102.999825 -103.064127    0.064302  15.022    0.00160    0.01076
        273    54 -102.999681 -103.053843    0.054162  15.022    0.00160    0.01023
        274    54 -102.999570 -103.043092    0.043522  15.022    0.00158    0.01090
        275    53 -102.999510 -103.034265    0.034754  15.022    0.00153    0.01005
        276    54 -102.999504 -103.020436    0.020932  15.022    0.00152    0.00914
        277    54 -102.999490 -103.009280    0.009790  15.022    0.00149    0.00814
        278    54 -102.999514 -102.998409    0.001104  15.022    0.00147    0.00712
        279    54 -102.999563 -102.990056    0.009507  15.022    0.00144    0.00650
        280    53 -102.999601 -102.982825    0.016776  15.022    0.00139    0.00640
        281    53 -102.999653 -102.977974    0.021679  15.022    0.00135    0.00662
        282    53 -102.999726 -102.974542    0.025184  15.022    0.00132    0.00691
        283    53 -102.999806 -102.972544    0.027262  15.022    0.00129    0.00718
        284    53 -102.999905 -102.971827    0.028079  15.022    0.00128    0.00737
        285    53 -103.000009 -102.972284    0.027725  15.022    0.00127    0.00742
        286    53 -103.000115 -102.973816    0.026299  15.022    0.00126    0.00729
        287    54 -103.000213 -102.976296    0.023917  15.022    0.00126    0.00697
        288    53 -103.000299 -102.979544    0.020755  15.022    0.00126    0.00649
        289    53 -103.000368 -102.983398    0.016970  15.022    0.00126    0.00596
        290    53 -103.000417 -102.987689    0.012728  15.022    0.00126    0.00546
        291    59 -103.000447 -102.992279    0.008169  15.022    0.00126    0.00510
        292    58 -103.000445 -102.996995    0.003451  15.022    0.00125    0.00494
        293    58 -103.000418 -103.001897    0.001479  15.022    0.00124    0.00502
        294    58 -103.000404 -103.006736    0.006332  15.022    0.00122    0.00519
        295    58 -103.000351 -103.010709    0.010359  15.022    0.00122    0.00546
        296    58 -103.000270 -103.014359    0.014089  15.022    0.00122    0.00584
        297    52 -103.000219 -103.017463    0.017243  15.022    0.00120    0.00607
        298    58 -103.000130 -103.019085    0.018955  15.022    0.00120    0.00626
        299    58 -103.000049 -103.020017    0.019967  15.022    0.00120    0.00637
        300    53 -102.999955 -103.019749    0.019794  15.022    0.00120    0.00641
        301    53 -102.999866 -103.018601    0.018735  15.022    0.00119    0.00637
        302    57 -102.999777 -103.016455    0.016678  15.022    0.00119    0.00627
        303    58 -102.999699 -103.013530    0.013830  15.022    0.00119    0.00615
        304    54 -102.999633 -103.009894    0.010261  15.022    0.00118    0.00604
        305    54 -102.999584 -103.005752    0.006169  15.022    0.00118    0.00598
        306    53 -102.999551 -103.001543    0.001992  15.022    0.00117    0.00597
        307    59 -102.999535 -102.997096    0.002439  15.022    0.00116    0.00604
        308    53 -102.999537 -102.992790    0.006747  15.022    0.00116    0.00617
        309    53 -102.999558 -102.988433    0.011125  15.022    0.00115    0.00635
        310    53 -102.999595 -102.984676    0.014918  15.022    0.00114    0.00655
        311    53 -102.999644 -102.981532    0.018112  15.022    0.00111    0.00736
        312    58 -102.999694 -102.981826    0.017868  15.022    0.00108    0.00770
        313    58 -102.999731 -102.984231    0.015500  15.022    0.00105    0.00875
        314    54 -102.999742 -102.988255    0.011487  15.022    0.00104    0.00831
        315    53 -102.999739 -102.988734    0.011005  15.022    0.00102    0.00853
        316    52 -102.999701 -102.993237    0.006464  15.022    0.00102    0.00833
        317    53 -102.999656 -102.995401    0.004256  15.022    0.00102    0.00819
        318    53 -102.999600 -102.997430    0.002170  15.022    0.00101    0.00800
        319    47 -102.999539 -102.999408    0.000132  15.022    0.00099    0.00822
        320    53 -102.999475 -103.003258    0.003783  15.022    0.00098    0.00779
        321    49 -102.999410 -103.004844    0.005434  15.022    0.00096    0.00747
        322    47 -102.999347 -103.006784    0.007437  15.022    0.00094    0.00738
        323    53 -102.999292 -103.007456    0.008164  15.022    0.00091    0.00732
        324    53 -102.999245 -103.008003    0.008758  15.022    0.00090    0.00724
        325    53 -102.999203 -103.007357    0.008153  15.022    0.00089    0.00743
        326    53 -102.999166 -103.007822    0.008656  15.022    0.00088    0.00732
        327    53 -102.999126 -103.006969    0.007842  15.022    0.00088    0.00731
        328    53 -102.999084 -103.006565    0.007480  15.022    0.00087    0.00724
        329    53 -102.999042 -103.005726    0.006684  15.022    0.00086    0.00718
        330    53 -102.998998 -103.004964    0.005965  15.022    0.00084    0.00711
        331    53 -102.998958 -103.003924    0.004967  15.022    0.00082    0.00723
        332    55 -102.998925 -103.004032    0.005107  15.022    0.00082    0.00712
        333    56 -102.998894 -103.003554    0.004659  15.022    0.00081    0.00715
        334    55 -102.998865 -103.003762    0.004897  15.022    0.00077    0.00717
        335    55 -102.998833 -103.004683    0.005850  15.022    0.00068    0.00749
        336    53 -102.998798 -103.006683    0.007884  15.022    0.00062    0.00732
        337    54 -102.998754 -103.008746    0.009993  15.022    0.00058    0.00711
        338    56 -102.998699 -103.009877    0.011177  15.022    0.00058    0.00673
        339    55 -102.998642 -103.010517    0.011875  15.022    0.00058    0.00644
        340    60 -102.998585 -103.010013    0.011427  15.022    0.00058    0.00628
        341    61 -102.998529 -103.008880    0.010351  15.022    0.00058    0.00614
        342    60 -102.998476 -103.007246    0.008770  15.022    0.00058    0.00594
        343    60 -102.998429 -103.005551    0.007121  15.022    0.00057    0.00573
        344    60 -102.998391 -103.003892    0.005501  15.022    0.00055    0.00555
        345    60 -102.998364 -103.002433    0.004069  15.022    0.00054    0.00540
        346    58 -102.998345 -103.001167    0.002822  15.022    0.00052    0.00534
        347    56 -102.998332 -103.000271    0.001939  15.022    0.00051    0.00512
        348    58 -102.998318 -102.998104    0.000215  15.022    0.00050    0.00500
        349    60 -102.998316 -102.996457    0.001860  15.022    0.00049    0.00491
        350    60 -102.998321 -102.994442    0.003878  15.022    0.00048    0.00483
        351    56 -102.998331 -102.992811    0.005521  15.022    0.00047    0.00495
        352    56 -102.998350 -102.992202    0.006148  15.022    0.00046    0.00486
        353    55 -102.998357 -102.990243    0.008115  15.022    0.00046    0.00481
        354    60 -102.998377 -102.989388    0.008989  15.022    0.00046    0.00478
        355    60 -102.998402 -102.988272    0.010130  15.022    0.00046    0.00473
        356    56 -102.998435 -102.987676    0.010760  15.022    0.00046    0.00467
        357    56 -102.998469 -102.987123    0.011346  15.022    0.00046    0.00461
        358    56 -102.998504 -102.986934    0.011570  15.022    0.00046    0.00455
        359    55 -102.998538 -102.986956    0.011582  15.022    0.00045    0.00448
        360    49 -102.998570 -102.987287    0.011283  15.022    0.00045    0.00439
        361    48 -102.998599 -102.987882    0.010716  15.022    0.00044    0.00429
        362    52 -102.998613 -102.988751    0.009861  15.022    0.00044    0.00420
        363    53 -102.998627 -102.989940    0.008687  15.022    0.00044    0.00411
        364    53 -102.998633 -102.991196    0.007436  15.022    0.00044    0.00403
        365    55 -102.998637 -102.992578    0.006059  15.022    0.00044    0.00396
        366    48 -102.998624 -102.993912    0.004711  15.022    0.00043    0.00393
        367    49 -102.998624 -102.995402    0.003222  15.022    0.00043    0.00385
        368    49 -102.998603 -102.996547    0.002055  15.022    0.00043    0.00379
        369    49 -102.998587 -102.997850    0.000737  15.022    0.00043    0.00373
        370    47 -102.998571 -102.998911    0.000340  15.022    0.00043    0.00367
        371    49 -102.998549 -102.999785    0.001236  15.022    0.00042    0.00362
        372    49 -102.998525 -103.000574    0.002049  15.022    0.00042    0.00357
        373    54 -102.998499 -103.001211    0.002712  15.022    0.00041    0.00353
        374    55 -102.998471 -103.001677    0.003206  15.022    0.00041    0.00349
        375    56 -102.998442 -103.001966    0.003525  15.022    0.00040    0.00344
        376    55 -102.998413 -103.002063    0.003650  15.022    0.00040    0.00339
        377    55 -102.998385 -103.001976    0.003591  15.022    0.00039    0.00335
        378    55 -102.998322 -103.001711    0.003389  15.022    0.00037    0.00339
        379    56 -102.998310 -103.001871    0.003561  15.022    0.00036    0.00333
        380    58 -102.998275 -103.001542    0.003267  15.022    0.00036    0.00369
        381    55 -102.998263 -103.002869    0.004606  15.022    0.00036    0.00363
        382    55 -102.998233 -103.002827    0.004594  15.022    0.00038    0.00349
        383    55 -102.998208 -103.003370    0.005161  15.022    0.00039    0.00337
        384    56 -102.998178 -103.003057    0.004878  15.022    0.00039    0.00330
        385    49 -102.998154 -103.002670    0.004516  15.022    0.00039    0.00323
        386    50 -102.998134 -103.001853    0.003719  15.022    0.00039    0.00317
        387    48 -102.998121 -103.001052    0.002930  15.022    0.00039    0.00312
        388    49 -102.998114 -103.000252    0.002138  15.022    0.00038    0.00309
        389    48 -102.998112 -102.999654    0.001542  15.022    0.00038    0.00305
        390    49 -102.998111 -102.999208    0.001098  15.022    0.00038    0.00298
        391    48 -102.998111 -102.998906    0.000795  15.022    0.00037    0.00290
        392    48 -102.998110 -102.998650    0.000539  15.022    0.00037    0.00282
        393    48 -102.998109 -102.998435    0.000326  15.022    0.00037    0.00274
        394    48 -102.998107 -102.998267    0.000161  15.022    0.00037    0.00266
        395    49 -102.998102 -102.998007    0.000095  15.022    0.00036    0.00261
        396    48 -102.998095 -102.997634    0.000461  15.022    0.00036    0.00257
        397    48 -102.998089 -102.997172    0.000917  15.022    0.00036    0.00254
        398    49 -102.998085 -102.996644    0.001441  15.022    0.00036    0.00252
        399    49 -102.998083 -102.996071    0.002012  15.022    0.00035    0.00250

        ==> Orbital Optimization <==

            Jacobi Optimization converged.
            Total energy change: -9.802738e-04

        400    48 -102.999064 -103.454084    0.455020   2.068    0.00034    0.00249
        401    77 -102.986134 -103.375559    0.389425   2.068    0.02294    0.07500
        402    47 -102.975917 -103.338925    0.363007   2.068    0.02455    0.05121
        403    47 -102.969357 -103.250463    0.281106   2.068    0.02432    0.03865
        404    38 -102.962597 -103.156311    0.193714   2.068    0.02223    0.03105
        405    37 -102.962848 -103.101541    0.138693   2.068    0.02062    0.02912
        406    41 -102.963923 -103.043764    0.079841   2.068    0.01902    0.03018
        407    42 -102.967366 -102.991519    0.024153   2.068    0.01810    0.03048
        408    42 -102.969183 -102.951850    0.017333   2.068    0.01635    0.02989
        409    42 -102.969832 -102.923165    0.046668   2.068    0.01419    0.02875
        410    42 -102.973100 -102.907560    0.065540   2.068    0.01358    0.02598
        411    40 -102.975573 -102.900356    0.075218   2.068    0.01277    0.02372
        412    41 -102.980362 -102.891033    0.089330   2.068    0.01071    0.02369
        413    35 -102.984171 -102.871906    0.112265   2.068    0.00862    0.02400
        414    37 -102.988457 -102.854646    0.133811   2.068    0.00734    0.02315
        415    42 -102.992505 -102.844560    0.147945   2.068    0.00676    0.02206
        416    41 -102.995230 -102.845197    0.150033   2.068    0.00741    0.02103
        417    42 -102.998054 -102.856670    0.141383   2.068    0.00833    0.01968
        418    41 -103.001585 -102.872663    0.128923   2.068    0.00779    0.01879
        419    41 -103.006125 -102.887760    0.118365   2.068    0.00611    0.01805
        420    42 -103.008781 -102.905748    0.103033   2.068    0.00592    0.01598
        421    41 -103.010638 -102.924790    0.085848   2.068    0.00616    0.01385
        422    41 -103.012408 -102.943397    0.069011   2.068    0.00634    0.01116
        423    41 -103.012745 -102.961031    0.051714   2.068    0.00702    0.00816
        424    41 -103.013087 -102.981195    0.031892   2.068    0.00721    0.00559
        425    42 -103.012794 -103.002464    0.010330   2.068    0.00719    0.00412
        426    42 -103.011790 -103.022458    0.010668   2.068    0.00669    0.00487
        427    42 -103.010536 -103.040852    0.030316   2.068    0.00578    0.00668
        428    41 -103.008942 -103.055700    0.046757   2.068    0.00469    0.00844
        429    41 -103.007068 -103.068143    0.061075   2.068    0.00359    0.00965
        430    41 -103.005188 -103.075270    0.070082   2.068    0.00299    0.01031
        431    35 -103.003177 -103.078109    0.074932   2.068    0.00309    0.01042
        432    35 -103.000597 -103.076676    0.076079   2.068    0.00256    0.01023
        433    42 -102.999026 -103.073045    0.074018   2.068    0.00342    0.00944
        434    41 -102.997435 -103.064756    0.067321   2.068    0.00427    0.00829
        435    41 -102.996117 -103.052993    0.056876   2.068    0.00488    0.00684
        436    41 -102.994179 -103.038942    0.044763   2.068    0.00448    0.00545
        437    41 -102.994146 -103.024958    0.030813   2.068    0.00484    0.00446
        438    41 -102.992616 -103.011281    0.018664   2.068    0.00361    0.00373
        439    41 -102.993392 -102.999418    0.006026   2.068    0.00366    0.00316
        440    42 -102.993738 -102.987008    0.006730   2.068    0.00327    0.00327
        441    42 -102.994751 -102.975193    0.019558   2.068    0.00291    0.00386
        442    42 -102.995683 -102.965231    0.030451   2.068    0.00229    0.00491
        443    38 -102.996949 -102.958964    0.037985   2.068    0.00177    0.00542
        444    42 -102.998199 -102.953607    0.044591   2.068    0.00135    0.00568
        445    39 -102.999510 -102.951574    0.047936   2.068    0.00123    0.00576
        446    42 -103.000729 -102.952409    0.048320   2.068    0.00136    0.00564
        447    42 -103.001875 -102.955727    0.046147   2.068    0.00161    0.00533
        448    41 -103.002855 -102.960805    0.042050   2.068    0.00188    0.00489
        449    41 -103.003643 -102.967120    0.036524   2.068    0.00209    0.00434
        450    41 -103.004054 -102.974468    0.029587   2.068    0.00231    0.00369
        451    41 -103.004367 -102.982652    0.021716   2.068    0.00244    0.00296
        452    41 -103.004471 -102.991046    0.013424   2.068    0.00249    0.00221
        453    41 -103.004468 -102.999545    0.004923   2.068    0.00238    0.00170
        454    41 -103.004295 -103.006656    0.002360   2.068    0.00219    0.00167
        455    41 -103.003876 -103.012521    0.008645   2.068    0.00198    0.00204
        456    36 -103.003260 -103.017603    0.014343   2.068    0.00175    0.00257
        457    40 -103.002582 -103.021852    0.019270   2.068    0.00146    0.00304
        458    37 -103.001787 -103.024840    0.023054   2.068    0.00118    0.00341
        459    37 -103.000992 -103.026967    0.025975   2.068    0.00095    0.00357
        460    35 -103.000157 -103.027305    0.027148   2.068    0.00084    0.00360
        461    37 -102.999389 -103.026574    0.027185   2.068    0.00087    0.00348
        462    41 -102.998703 -103.024380    0.025677   2.068    0.00100    0.00322
        463    41 -102.998129 -103.021038    0.022909   2.068    0.00116    0.00285
        464    41 -102.997694 -103.016944    0.019250   2.068    0.00131    0.00242
        465    41 -102.997409 -103.012274    0.014865   2.068    0.00141    0.00196
        466    42 -102.997251 -103.007316    0.010066   2.068    0.00145    0.00147
        467    41 -102.997227 -103.002424    0.005198   2.068    0.00137    0.00173
        468    35 -102.997241 -102.999636    0.002396   2.068    0.00119    0.00153
        469    41 -102.997510 -102.995904    0.001606   2.068    0.00111    0.00146
        470    41 -102.997771 -102.993400    0.004371   2.068    0.00100    0.00173
        471    41 -102.998082 -102.991526    0.006557   2.068    0.00094    0.00166
        472    42 -102.998381 -102.989998    0.008383   2.068    0.00092    0.00169
        473    42 -102.998710 -102.988812    0.009898   2.068    0.00091    0.00168
        474    35 -102.999026 -102.988067    0.010959   2.068    0.00090    0.00168
        475    41 -102.999340 -102.987865    0.011475   2.068    0.00086    0.00159
        476    41 -102.999629 -102.987697    0.011932   2.068    0.00081    0.00152
        477    41 -102.999894 -102.988260    0.011635   2.068    0.00074    0.00148
        478    41 -103.000129 -102.989143    0.010986   2.068    0.00066    0.00145
        479    41 -103.000247 -102.990446    0.009801   2.068    0.00063    0.00140
        480    41 -103.000379 -102.992037    0.008342   2.068    0.00061    0.00134
        481    41 -103.000464 -102.993897    0.006567   2.068    0.00063    0.00122
        482    41 -103.000507 -102.995342    0.005166   2.068    0.00065    0.00108
        483    41 -103.000520 -102.996619    0.003900   2.068    0.00066    0.00094
        484    41 -103.000506 -102.997644    0.002862   2.068    0.00066    0.00082
        485    40 -103.000471 -102.998617    0.001854   2.068    0.00065    0.00073
        486    36 -103.000416 -102.999574    0.000842   2.068    0.00064    0.00068
        487    36 -103.000350 -103.000577    0.000227   2.068    0.00063    0.00064
        488    37 -103.000266 -103.001598    0.001332   2.068    0.00062    0.00063
        489    40 -103.000170 -103.002606    0.002437   2.068    0.00060    0.00064
        490    41 -103.000056 -103.003522    0.003466   2.068    0.00056    0.00068
        491    41 -102.999936 -103.004111    0.004176   2.068    0.00052    0.00075
        492    42 -102.999810 -103.004482    0.004672   2.068    0.00048    0.00082
        493    41 -102.999687 -103.004612    0.004924   2.068    0.00044    0.00088
        494    41 -102.999565 -103.004627    0.005062   2.068    0.00042    0.00091
        495    41 -102.999448 -103.004447    0.004999   2.068    0.00042    0.00092
        496    41 -102.999339 -103.004190    0.004852   2.068    0.00044    0.00090
        497    41 -102.999237 -103.003838    0.004600   2.068    0.00046    0.00086
        498    41 -102.999146 -103.003397    0.004252   2.068    0.00048    0.00080
        499    35 -102.999065 -103.002894    0.003829   2.068    0.00050    0.00073
        500    35 -102.998998 -103.002313    0.003315   2.068    0.00052    0.00066
        501    41 -102.998945 -103.001711    0.002766   2.068    0.00052    0.00057
        502    41 -102.998905 -103.001068    0.002163   2.068    0.00052    0.00049
        503    41 -102.998880 -103.000430    0.001550   2.068    0.00052    0.00041
        504    42 -102.998867 -102.999768    0.000901   2.068    0.00051    0.00033
        505    42 -102.998869 -102.999096    0.000227   2.068    0.00049    0.00028
        506    47 -102.998885 -102.998421    0.000463   2.068    0.00047    0.00027
        507    42 -102.998913 -102.997776    0.001137   2.068    0.00045    0.00030
        508    42 -102.998957 -102.997176    0.001780   2.068    0.00043    0.00035
        509    41 -102.999013 -102.996647    0.002366   2.068    0.00041    0.00040
        510    42 -102.999079 -102.996198    0.002881   2.068    0.00039    0.00046
        511    41 -102.999154 -102.995837    0.003317   2.068    0.00037    0.00050
        512    42 -102.999236 -102.995566    0.003670   2.068    0.00036    0.00053
        513    41 -102.999322 -102.995386    0.003936   2.068    0.00035    0.00056
        514    41 -102.999409 -102.995303    0.004106   2.068    0.00035    0.00056
        515    42 -102.999497 -102.995317    0.004180   2.068    0.00035    0.00057
        516    42 -102.999576 -102.995505    0.004071   2.068    0.00035    0.00055
        517    41 -102.999650 -102.995726    0.003924   2.068    0.00036    0.00051
        518    40 -102.999718 -102.996019    0.003699   2.068    0.00037    0.00046
        519    38 -102.999777 -102.996376    0.003401   2.068    0.00038    0.00041
        520    37 -102.999829 -102.996805    0.003024   2.068    0.00039    0.00034
        521    37 -102.999869 -102.997298    0.002571   2.068    0.00039    0.00028
        522    40 -102.999897 -102.997839    0.002058   2.068    0.00040    0.00022
        523    40 -102.999910 -102.998434    0.001475   2.068    0.00040    0.00017
        524    42 -102.999906 -102.999073    0.000833   2.068    0.00039    0.00016
        525    41 -102.999883 -102.999693    0.000190   2.068    0.00038    0.00018
        526    41 -102.999844 -103.000247    0.000403   2.068    0.00036    0.00023
        527    41 -102.999791 -103.000744    0.000953   2.068    0.00035    0.00027
        528    40 -102.999727 -103.001111    0.001384   2.068    0.00034    0.00031
        529    40 -102.999656 -103.001392    0.001736   2.068    0.00033    0.00034
        530    40 -102.999582 -103.001564    0.001982   2.068    0.00032    0.00036
        531    41 -102.999508 -103.001657    0.002149   2.068    0.00030    0.00044
        532    40 -102.999438 -103.001880    0.002442   2.068    0.00031    0.00045
        533    41 -102.999363 -103.001889    0.002526   2.068    0.00031    0.00045
        534    41 -102.999290 -103.001958    0.002668   2.068    0.00032    0.00045
        535    41 -102.999218 -103.001893    0.002675   2.068    0.00033    0.00043
        536    40 -102.999151 -103.001783    0.002631   2.068    0.00034    0.00041
        537    40 -102.999089 -103.001576    0.002486   2.068    0.00034    0.00038
        538    40 -102.999035 -103.001315    0.002280   2.068    0.00034    0.00035
        539    40 -102.998988 -103.001010    0.002022   2.068    0.00034    0.00032
        540    40 -102.998952 -103.000677    0.001725   2.068    0.00035    0.00029
        541    40 -102.998924 -103.000329    0.001405   2.068    0.00035    0.00025
        542    40 -102.998906 -102.999965    0.001059   2.068    0.00036    0.00021
        543    42 -102.998898 -102.999591    0.000693   2.068    0.00036    0.00017
        544    40 -102.998894 -102.999210    0.000316   2.068    0.00035    0.00015
        545    42 -102.998909 -102.998847    0.000063   2.068    0.00035    0.00015
        546    42 -102.998929 -102.998471    0.000458   2.068    0.00035    0.00016
        547    42 -102.998958 -102.998125    0.000834   2.068    0.00035    0.00018
        548    42 -102.998992 -102.997807    0.001185   2.068    0.00034    0.00020
        549    42 -102.999033 -102.997536    0.001497   2.068    0.00034    0.00023
        550    41 -102.999077 -102.997314    0.001763   2.068    0.00033    0.00025
        551    41 -102.999124 -102.997150    0.001974   2.068    0.00032    0.00026
        552    40 -102.999173 -102.997044    0.002129   2.068    0.00031    0.00028
        553    40 -102.999223 -102.996998    0.002224   2.068    0.00030    0.00028
        554    40 -102.999271 -102.997009    0.002262   2.068    0.00029    0.00029
        555    38 -102.999316 -102.997071    0.002245   2.068    0.00028    0.00028
        556    38 -102.999358 -102.997182    0.002176   2.068    0.00028    0.00027
        557    40 -102.999388 -102.997327    0.002061   2.068    0.00027    0.00026
        558    41 -102.999421 -102.997521    0.001900   2.068    0.00027    0.00024
        559    42 -102.999446 -102.997725    0.001721   2.068    0.00026    0.00022
        560    42 -102.999465 -102.997949    0.001516   2.068    0.00026    0.00020
        561    41 -102.999478 -102.998185    0.001293   2.068    0.00026    0.00017
        562    42 -102.999485 -102.998430    0.001054   2.068    0.00026    0.00015
        563    42 -102.999486 -102.998677    0.000809   2.068    0.00026    0.00013
        564    42 -102.999476 -102.998921    0.000555   2.068    0.00026    0.00012
        565    47 -102.999468 -102.999168    0.000299   2.068    0.00025    0.00011
        566    47 -102.999453 -102.999388    0.000065   2.068    0.00025    0.00011
        567    47 -102.999434 -102.999594    0.000159   2.068    0.00025    0.00012
        568    42 -102.999413 -102.999776    0.000364   2.068    0.00025    0.00014
        569    42 -102.999387 -102.999937    0.000550   2.068    0.00025    0.00015
        570    40 -102.999360 -103.000068    0.000708   2.068    0.00025    0.00016
        571    40 -102.999330 -103.000170    0.000840   2.068    0.00025    0.00017
        572    41 -102.999299 -103.000239    0.000940   2.068    0.00025    0.00018
        573    41 -102.999268 -103.000278    0.001010   2.068    0.00025    0.00019
        574    41 -102.999231 -103.000283    0.001052   2.068    0.00025    0.00019
        575    40 -102.999204 -103.000270    0.001066   2.068    0.00025    0.00019
        576    40 -102.999173 -103.000208    0.001035   2.068    0.00025    0.00018
        577    41 -102.999149 -103.000128    0.000979   2.068    0.00026    0.00017
        578    41 -102.999125 -103.000017    0.000892   2.068    0.00026    0.00016
        579    41 -102.999106 -102.999888    0.000783   2.068    0.00026    0.00015
        580    41 -102.999090 -102.999740    0.000650   2.068    0.00026    0.00014
        581    42 -102.999078 -102.999579    0.000501   2.068    0.00026    0.00013
        582    41 -102.999071 -102.999409    0.000338   2.068    0.00026    0.00011
        583    42 -102.999068 -102.999236    0.000168   2.068    0.00026    0.00010
        584    42 -102.999070 -102.999064    0.000006   2.068    0.00026    0.00009
        585    47 -102.999076 -102.998899    0.000177   2.068    0.00026    0.00008
        586    47 -102.999086 -102.998742    0.000343   2.068    0.00025    0.00008
        587    47 -102.999098 -102.998601    0.000497   2.068    0.00025    0.00009
        588    47 -102.999114 -102.998477    0.000637   2.068    0.00025    0.00009
        589    43 -102.999132 -102.998372    0.000759   2.068    0.00025    0.00010
        590    42 -102.999151 -102.998290    0.000861   2.068    0.00024    0.00011
        591    42 -102.999171 -102.998230    0.000940   2.068    0.00024    0.00011
        592    42 -102.999191 -102.998193    0.000998   2.068    0.00024    0.00012
        593    42 -102.999211 -102.998178    0.001033   2.068    0.00024    0.00013
        594    42 -102.999230 -102.998183    0.001047   2.068    0.00023    0.00013
        595    42 -102.999247 -102.998208    0.001040   2.068    0.00023    0.00013
        596    42 -102.999264 -102.998250    0.001014   2.068    0.00023    0.00013
        597    42 -102.999278 -102.998307    0.000971   2.068    0.00023    0.00012
        598    42 -102.999290 -102.998378    0.000913   2.068    0.00022    0.00012
        599    42 -102.999300 -102.998458    0.000842   2.068    0.00022    0.00011

        ==> Orbital Optimization <==

            Jacobi Optimization converged.
            Total energy change: -1.531667e-05

        600    42 -102.999323 -103.041540    0.042216   4.402    0.00022    0.00010
        601    76 -102.999136 -103.024645    0.025509   4.402    0.00135    0.00844
        602    49 -102.998636 -103.023874    0.025238   4.402    0.00140    0.00548
        603    42 -102.998269 -103.018449    0.020180   4.402    0.00139    0.00405
        604    42 -102.998136 -103.011841    0.013705   4.402    0.00137    0.00292
        605    42 -102.998207 -103.006116    0.007909   4.402    0.00124    0.00279
        606    38 -102.998319 -103.001194    0.002874   4.402    0.00109    0.00335
        607    42 -102.998414 -102.997621    0.000793   4.402    0.00094    0.00379
        608    42 -102.998478 -102.995386    0.003092   4.402    0.00082    0.00386
        609    42 -102.998519 -102.994224    0.004295   4.402    0.00079    0.00352
        610    48 -102.998615 -102.993768    0.004847   4.402    0.00078    0.00291
        611    47 -102.998676 -102.993308    0.005369   4.402    0.00073    0.00238
        612    47 -102.998760 -102.993018    0.005742   4.402    0.00063    0.00213
        613    47 -102.998841 -102.992542    0.006299   4.402    0.00054    0.00215
        614    47 -102.998899 -102.992146    0.006753   4.402    0.00044    0.00222
        615    42 -102.998988 -102.991664    0.007324   4.402    0.00043    0.00223
        616    47 -102.999072 -102.991417    0.007656   4.402    0.00043    0.00218
        617    42 -102.999166 -102.991719    0.007447   4.402    0.00046    0.00192
        618    42 -102.999252 -102.991897    0.007355   4.402    0.00046    0.00167
        619    44 -102.999328 -102.992297    0.007031   4.402    0.00044    0.00150
        620    47 -102.999410 -102.992930    0.006480   4.402    0.00041    0.00143
        621    47 -102.999494 -102.993707    0.005788   4.402    0.00037    0.00140
        622    47 -102.999571 -102.994574    0.004998   4.402    0.00034    0.00136
        623    49 -102.999630 -102.995572    0.004058   4.402    0.00033    0.00129
        624    49 -102.999668 -102.996687    0.002980   4.402    0.00032    0.00121
        625    48 -102.999681 -102.997840    0.001841   4.402    0.00031    0.00115
        626    48 -102.999670 -102.999007    0.000663   4.402    0.00029    0.00114
        627    42 -102.999635 -103.000045    0.000410   4.402    0.00027    0.00114
        628    42 -102.999584 -103.000899    0.001315   4.402    0.00026    0.00112
        629    42 -102.999516 -103.001501    0.001985   4.402    0.00027    0.00106
        630    46 -102.999437 -103.001865    0.002428   4.402    0.00029    0.00095
        631    48 -102.999374 -103.002046    0.002673   4.402    0.00032    0.00080
        632    48 -102.999302 -103.001967    0.002665   4.402    0.00033    0.00068
        633    49 -102.999257 -103.001851    0.002594   4.402    0.00032    0.00062
        634    49 -102.999222 -103.001604    0.002382   4.402    0.00030    0.00064
        635    49 -102.999199 -103.001365    0.002166   4.402    0.00027    0.00071
        636    48 -102.999183 -103.001149    0.001966   4.402    0.00024    0.00077
        637    47 -102.999174 -103.000987    0.001813   4.402    0.00021    0.00081
        638    42 -102.999167 -103.000885    0.001718   4.402    0.00020    0.00082
        639    41 -102.999159 -103.000891    0.001731   4.402    0.00019    0.00080
        640    47 -102.999147 -103.000843    0.001695   4.402    0.00020    0.00078
        641    48 -102.999132 -103.000779    0.001647   4.402    0.00020    0.00075
        642    47 -102.999115 -103.000680    0.001565   4.402    0.00021    0.00070
        643    47 -102.999096 -103.000545    0.001449   4.402    0.00022    0.00064
        644    47 -102.999079 -103.000382    0.001303   4.402    0.00023    0.00055
        645    47 -102.999063 -103.000195    0.001132   4.402    0.00024    0.00044
        646    47 -102.999051 -102.999993    0.000942   4.402    0.00024    0.00034
        647    48 -102.999042 -102.999782    0.000740   4.402    0.00024    0.00028
        648    47 -102.999038 -102.999564    0.000527   4.402    0.00023    0.00028
        649    47 -102.999037 -102.999334    0.000298   4.402    0.00022    0.00033
        650    47 -102.999039 -102.999096    0.000056   4.402    0.00021    0.00039
        651    47 -102.999045 -102.998848    0.000196   4.402    0.00020    0.00043
        652    47 -102.999052 -102.998594    0.000458   4.402    0.00019    0.00046
        653    48 -102.999059 -102.998334    0.000725   4.402    0.00018    0.00046
        654    47 -102.999072 -102.998087    0.000985   4.402    0.00018    0.00046
        655    46 -102.999085 -102.997818    0.001267   4.402    0.00018    0.00045
        656    47 -102.999096 -102.997564    0.001532   4.402    0.00017    0.00045
        657    42 -102.999117 -102.997341    0.001777   4.402    0.00017    0.00043
        658    41 -102.999137 -102.997104    0.002032   4.402    0.00017    0.00042
        659    41 -102.999161 -102.996919    0.002242   4.402    0.00018    0.00041
        660    41 -102.999186 -102.996774    0.002412   4.402    0.00018    0.00040
        661    41 -102.999213 -102.996697    0.002516   4.402    0.00018    0.00038
        662    42 -102.999240 -102.996689    0.002551   4.402    0.00018    0.00037
        663    42 -102.999267 -102.996764    0.002504   4.402    0.00018    0.00035
        664    42 -102.999292 -102.996931    0.002361   4.402    0.00017    0.00034
        665    47 -102.999315 -102.997196    0.002119   4.402    0.00017    0.00032
        666    47 -102.999334 -102.997488    0.001846   4.402    0.00016    0.00030
        667    47 -102.999347 -102.997862    0.001485   4.402    0.00016    0.00028
        668    48 -102.999353 -102.998265    0.001089   4.402    0.00016    0.00026
        669    48 -102.999353 -102.998702    0.000651   4.402    0.00016    0.00025
        670    48 -102.999347 -102.999141    0.000206   4.402    0.00015    0.00025
        671    48 -102.999334 -102.999570    0.000236   4.402    0.00015    0.00025
        672    48 -102.999315 -102.999967    0.000651   4.402    0.00015    0.00026
        673    48 -102.999292 -103.000315    0.001023   4.402    0.00015    0.00027
        674    48 -102.999265 -103.000597    0.001332   4.402    0.00015    0.00028
        675    52 -102.999236 -103.000805    0.001570   4.402    0.00015    0.00029
        676    52 -102.999206 -103.000931    0.001725   4.402    0.00015    0.00029
        677    47 -102.999176 -103.000978    0.001802   4.402    0.00015    0.00029
        678    47 -102.999148 -103.000948    0.001800   4.402    0.00016    0.00028
        679    47 -102.999122 -103.000852    0.001729   4.402    0.00016    0.00027
        680    49 -102.999100 -103.000697    0.001597   4.402    0.00016    0.00026
        681    47 -102.999081 -103.000497    0.001416   4.402    0.00016    0.00024
        682    47 -102.999067 -103.000261    0.001194   4.402    0.00016    0.00023
        683    47 -102.999058 -103.000002    0.000944   4.402    0.00016    0.00022
        684    47 -102.999053 -102.999729    0.000677   4.402    0.00016    0.00021
        685    47 -102.999052 -102.999458    0.000407   4.402    0.00016    0.00022
        686    47 -102.999056 -102.999232    0.000176   4.402    0.00016    0.00022
        687    47 -102.999063 -102.998969    0.000094   4.402    0.00016    0.00023
        688    47 -102.999073 -102.998754    0.000319   4.402    0.00016    0.00023
        689    47 -102.999085 -102.998550    0.000535   4.402    0.00016    0.00023
        690    47 -102.999099 -102.998391    0.000708   4.402    0.00016    0.00023
        691    47 -102.999113 -102.998263    0.000850   4.402    0.00016    0.00023
        692    47 -102.999128 -102.998181    0.000947   4.402    0.00016    0.00023
        693    47 -102.999143 -102.998137    0.001006   4.402    0.00016    0.00022
        694    47 -102.999157 -102.998141    0.001016   4.402    0.00016    0.00022
        695    47 -102.999170 -102.998182    0.000987   4.402    0.00016    0.00021
        696    47 -102.999181 -102.998247    0.000934   4.402    0.00016    0.00020
        697    42 -102.999190 -102.998325    0.000865   4.402    0.00016    0.00019
        698    42 -102.999197 -102.998417    0.000781   4.402    0.00016    0.00019
        699    42 -102.999202 -102.998513    0.000689   4.402    0.00015    0.00018
        700    42 -102.999205 -102.998618    0.000587   4.402    0.00015    0.00018
        701    42 -102.999206 -102.998726    0.000480   4.402    0.00015    0.00018
        702    42 -102.999205 -102.998838    0.000367   4.402    0.00015    0.00018
        703    47 -102.999203 -102.998951    0.000252   4.402    0.00015    0.00018
        704    47 -102.999199 -102.999053    0.000145   4.402    0.00015    0.00017
        705    47 -102.999193 -102.999141    0.000053   4.402    0.00014    0.00017
        706    47 -102.999187 -102.999211    0.000024   4.402    0.00014    0.00016
        707    47 -102.999181 -102.999264    0.000083   4.402    0.00014    0.00015
        708    47 -102.999174 -102.999301    0.000127   4.402    0.00014    0.00014
        709    48 -102.999167 -102.999324    0.000157   4.402    0.00014    0.00014
        710    47 -102.999161 -102.999335    0.000174   4.402    0.00014    0.00013
        711    47 -102.999155 -102.999336    0.000181   4.402    0.00014    0.00013
        712    47 -102.999150 -102.999328    0.000178   4.402    0.00014    0.00013
        713    47 -102.999146 -102.999312    0.000167   4.402    0.00014    0.00013
        714    47 -102.999142 -102.999316    0.000174   4.402    0.00014    0.00013
        715    47 -102.999139 -102.999288    0.000150   4.402    0.00014    0.00014
        716    47 -102.999135 -102.999274    0.000138   4.402    0.00014    0.00014
        717    47 -102.999133 -102.999222    0.000089   4.402    0.00015    0.00013
        718    48 -102.999131 -102.999181    0.000050   4.402    0.00015    0.00013
        719    47 -102.999130 -102.999130    0.000000   4.402    0.00015    0.00013
        720    47 -102.999129 -102.999088    0.000041   4.402    0.00015    0.00012
        721    47 -102.999129 -102.999047    0.000082   4.402    0.00015    0.00012
        722    47 -102.999130 -102.999015    0.000115   4.402    0.00015    0.00011
        723    49 -102.999131 -102.998986    0.000145   4.402    0.00015    0.00011
        724    49 -102.999132 -102.998964    0.000169   4.402    0.00015    0.00011
        725    49 -102.999134 -102.998944    0.000190   4.402    0.00015    0.00010
        726    52 -102.999136 -102.998930    0.000206   4.402    0.00014    0.00010
        727    53 -102.999137 -102.998919    0.000218   4.402    0.00014    0.00010
        728    52 -102.999139 -102.998912    0.000227   4.402    0.00014    0.00010
        729    49 -102.999140 -102.998908    0.000232   4.402    0.00014    0.00010
        730    53 -102.999141 -102.998906    0.000235   4.402    0.00014    0.00010
        731    52 -102.999142 -102.998905    0.000237   4.402    0.00014    0.00010
        732    52 -102.999142 -102.998904    0.000238   4.402    0.00014    0.00010
        733    49 -102.999143 -102.998902    0.000241   4.402    0.00014    0.00010
        734    49 -102.999143 -102.998898    0.000245   4.402    0.00014    0.00010
        735    53 -102.999143 -102.998894    0.000249   4.402    0.00014    0.00010
        736    49 -102.999144 -102.998891    0.000253   4.402    0.00014    0.00010
        737    49 -102.999144 -102.998887    0.000257   4.402    0.00014    0.00010
        738    53 -102.999145 -102.998887    0.000258   4.402    0.00014    0.00009
        739    53 -102.999146 -102.998890    0.000256   4.402    0.00014    0.00009
        740    52 -102.999147 -102.998896    0.000250   4.402    0.00014    0.00009
        741    53 -102.999147 -102.998907    0.000240   4.402    0.00013    0.00009
        742    53 -102.999148 -102.998922    0.000227   4.402    0.00013    0.00009
        743    54 -102.999149 -102.998943    0.000206   4.402    0.00013    0.00009
        744    53 -102.999150 -102.998966    0.000184   4.402    0.00013    0.00009
        745    53 -102.999150 -102.998991    0.000159   4.402    0.00013    0.00009
        746    53 -102.999150 -102.999015    0.000135   4.402    0.00013    0.00009
        747    52 -102.999149 -102.999039    0.000110   4.402    0.00013    0.00009
        748    55 -102.999149 -102.999062    0.000087   4.402    0.00013    0.00009
        749    53 -102.999148 -102.999083    0.000065   4.402    0.00013    0.00009
        750    55 -102.999147 -102.999102    0.000045   4.402    0.00013    0.00009
        751    55 -102.999145 -102.999118    0.000027   4.402    0.00013    0.00009
        752    52 -102.999144 -102.999132    0.000012   4.402    0.00013    0.00009
        753    53 -102.999142 -102.999142    0.000000   4.402    0.00013    0.00008
        754    52 -102.999141 -102.999148    0.000007   4.402    0.00013    0.00008
        755    54 -102.999139 -102.999152    0.000012   4.402    0.00013    0.00008
        756    52 -102.999138 -102.999151    0.000014   4.402    0.00013    0.00008
        757    53 -102.999136 -102.999148    0.000012   4.402    0.00013    0.00008
        758    53 -102.999135 -102.999142    0.000007   4.402    0.00013    0.00008
        759    53 -102.999134 -102.999133    0.000000   4.402    0.00013    0.00008
        760    52 -102.999133 -102.999122    0.000011   4.402    0.00013    0.00008
        761    53 -102.999131 -102.999109    0.000023   4.402    0.00013    0.00008
        762    55 -102.999131 -102.999093    0.000037   4.402    0.00013    0.00008
        763    52 -102.999130 -102.999077    0.000053   4.402    0.00013    0.00008
        764    53 -102.999129 -102.999059    0.000070   4.402    0.00013    0.00008
        765    52 -102.999128 -102.999040    0.000088   4.402    0.00013    0.00008
        766    52 -102.999128 -102.999022    0.000106   4.402    0.00013    0.00007
        767    55 -102.999128 -102.999004    0.000124   4.402    0.00013    0.00007
        768    55 -102.999128 -102.998987    0.000142   4.402    0.00013    0.00007
        769    53 -102.999129 -102.998971    0.000158   4.402    0.00013    0.00007
        770    55 -102.999129 -102.998958    0.000172   4.402    0.00013    0.00007
        771    55 -102.999130 -102.998946    0.000184   4.402    0.00013    0.00007
        772    55 -102.999131 -102.998937    0.000194   4.402    0.00013    0.00007
        773    55 -102.999132 -102.998930    0.000201   4.402    0.00013    0.00007
        774    53 -102.999133 -102.998926    0.000206   4.402    0.00013    0.00007
        775    53 -102.999133 -102.998925    0.000209   4.402    0.00013    0.00007
        776    52 -102.999134 -102.998925    0.000209   4.402    0.00013    0.00007
        777    53 -102.999135 -102.998929    0.000206   4.402    0.00013    0.00007
        778    53 -102.999136 -102.998935    0.000201   4.402    0.00013    0.00007
        779    55 -102.999137 -102.998942    0.000195   4.402    0.00013    0.00007
        780    53 -102.999137 -102.998950    0.000187   4.402    0.00013    0.00007
        781    58 -102.999138 -102.998959    0.000179   4.402    0.00013    0.00007
        782    55 -102.999138 -102.998968    0.000170   4.402    0.00013    0.00007
        783    55 -102.999138 -102.998978    0.000160   4.402    0.00013    0.00007
        784    53 -102.999138 -102.998987    0.000150   4.402    0.00013    0.00007
        785    53 -102.999138 -102.998998    0.000140   4.402    0.00013    0.00011
        786    47 -102.999136 -102.999051    0.000084   4.402    0.00013    0.00010
        787    52 -102.999135 -102.999033    0.000102   4.402    0.00013    0.00010
        788    49 -102.999132 -102.999059    0.000074   4.402    0.00013    0.00011
        789    49 -102.999131 -102.999056    0.000075   4.402    0.00013    0.00011
        790    47 -102.999129 -102.999071    0.000058   4.402    0.00013    0.00012
        791    47 -102.999127 -102.999073    0.000053   4.402    0.00013    0.00012
        792    47 -102.999125 -102.999083    0.000042   4.402    0.00013    0.00012
        793    47 -102.999123 -102.999087    0.000036   4.402    0.00013    0.00012
        794    47 -102.999120 -102.999090    0.000030   4.402    0.00013    0.00012
        795    47 -102.999118 -102.999089    0.000029   4.402    0.00013    0.00012
        796    49 -102.999116 -102.999082    0.000034   4.402    0.00013    0.00012
        797    49 -102.999114 -102.999070    0.000045   4.402    0.00013    0.00011
        798    48 -102.999113 -102.999051    0.000062   4.402    0.00013    0.00011
        799    48 -102.999112 -102.999027    0.000085   4.402    0.00013    0.00010

        ==> Orbital Optimization <==

            Jacobi Optimization converged.
            Total energy change: -5.088396e-07

        800    49 -102.999112 -103.006865    0.007753   5.817    0.00013    0.00010
        801    65 -102.999079 -103.003939    0.004860   5.817    0.00024    0.00162
        802    41 -102.999003 -103.003596    0.004592   5.817    0.00026    0.00110
        803    47 -102.998957 -103.002580    0.003623   5.817    0.00026    0.00081
        804    47 -102.998943 -103.001374    0.002431   5.817    0.00026    0.00057
        805    48 -102.998947 -103.000206    0.001259   5.817    0.00025    0.00055
        806    47 -102.998957 -102.999268    0.000311   5.817    0.00024    0.00067
        807    47 -102.998971 -102.998615    0.000356   5.817    0.00022    0.00075
        808    47 -102.998987 -102.998202    0.000785   5.817    0.00021    0.00075
        809    47 -102.999005 -102.997947    0.001058   5.817    0.00020    0.00068
        810    48 -102.999021 -102.997796    0.001225   5.817    0.00019    0.00058
        811    47 -102.999036 -102.997713    0.001323   5.817    0.00018    0.00048
        812    47 -102.999048 -102.997672    0.001376   5.817    0.00016    0.00044
        813    47 -102.999059 -102.997645    0.001414   5.817    0.00015    0.00045
        814    53 -102.999069 -102.997614    0.001455   5.817    0.00014    0.00047
        815    52 -102.999079 -102.997578    0.001501   5.817    0.00014    0.00046
        816    52 -102.999090 -102.997541    0.001550   5.817    0.00014    0.00043
[...]
      19192    51 -109.020826 -109.020796    0.000030  19.377    0.00000    0.00000
      19193    51 -109.020826 -109.020796    0.000030  19.377    0.00000    0.00000
      19194    51 -109.020826 -109.020796    0.000030  19.377    0.00000    0.00000
      19195    51 -109.020826 -109.020796    0.000030  19.377    0.00000    0.00000
      19196    51 -109.020826 -109.020796    0.000030  19.377    0.00000    0.00000
      19197    51 -109.020826 -109.020796    0.000030  19.377    0.00000    0.00000
      19198    51 -109.020826 -109.020796    0.000030  19.377    0.00000    0.00000
      19199    52 -109.020826 -109.020796    0.000030  19.377    0.00000    0.00000

        ==> Orbital Optimization <==

            Jacobi Optimization converged.
            Total energy change: -2.506795e-11

      19200    51 -109.020826 -109.020836    0.000010  19.433    0.00000    0.00000
      19201    48 -109.020826 -109.020806    0.000020  19.433    0.00000    0.00001
      19202    51 -109.020826 -109.020802    0.000024  19.433    0.00000    0.00001
      19203    52 -109.020826 -109.020799    0.000027  19.433    0.00000    0.00001
      19204    51 -109.020826 -109.020797    0.000029  19.433    0.00000    0.00001
      19205    51 -109.020826 -109.020797    0.000029  19.433    0.00000    0.00001
      19206    51 -109.020826 -109.020797    0.000029  19.433    0.00000    0.00001
      19207    51 -109.020826 -109.020797    0.000029  19.433    0.00000    0.00001
      19208    51 -109.020826 -109.020797    0.000029  19.433    0.00000    0.00001
      19209    51 -109.020826 -109.020797    0.000029  19.433    0.00000    0.00001
      19210    51 -109.020826 -109.020796    0.000030  19.433    0.00000    0.00001
      19211    51 -109.020826 -109.020795    0.000031  19.433    0.00000    0.00000
      19212    50 -109.020826 -109.020794    0.000032  19.433    0.00000    0.00000
      19213    51 -109.020826 -109.020793    0.000033  19.433    0.00000    0.00000
      19214    51 -109.020826 -109.020792    0.000034  19.433    0.00000    0.00000
      19215    52 -109.020826 -109.020792    0.000034  19.433    0.00000    0.00000
      19216    51 -109.020826 -109.020793    0.000034  19.433    0.00000    0.00000
      19217    51 -109.020826 -109.020793    0.000033  19.433    0.00000    0.00000
      19218    51 -109.020826 -109.020793    0.000033  19.433    0.00000    0.00000
      19219    51 -109.020826 -109.020794    0.000033  19.433    0.00000    0.00000
      19220    51 -109.020826 -109.020794    0.000032  19.433    0.00000    0.00000
      19221    51 -109.020826 -109.020794    0.000032  19.433    0.00000    0.00000
      19222    51 -109.020826 -109.020795    0.000031  19.433    0.00000    0.00000
      19223    52 -109.020826 -109.020795    0.000031  19.433    0.00000    0.00000
      19224    52 -109.020826 -109.020796    0.000030  19.433    0.00000    0.00000
      19225    51 -109.020826 -109.020797    0.000029  19.433    0.00000    0.00000
      19226    52 -109.020826 -109.020797    0.000029  19.433    0.00000    0.00000
      19227    51 -109.020826 -109.020798    0.000028  19.433    0.00000    0.00000
      19228    51 -109.020826 -109.020799    0.000028  19.433    0.00000    0.00000
      19229    52 -109.020826 -109.020799    0.000027  19.433    0.00000    0.00000
      19230    51 -109.020826 -109.020799    0.000027  19.433    0.00000    0.00000
      19231    51 -109.020826 -109.020799    0.000027  19.433    0.00000    0.00000
      19232    51 -109.020826 -109.020799    0.000027  19.433    0.00000    0.00000
      19233    52 -109.020826 -109.020799    0.000027  19.433    0.00000    0.00000
      19234    51 -109.020826 -109.020799    0.000027  19.433    0.00000    0.00000
      19235    52 -109.020826 -109.020799    0.000027  19.433    0.00000    0.00000
      19236    51 -109.020826 -109.020798    0.000028  19.433    0.00000    0.00000
      19237    51 -109.020826 -109.020798    0.000028  19.433    0.00000    0.00000
      19238    51 -109.020826 -109.020797    0.000029  19.433    0.00000    0.00000
      19239    51 -109.020826 -109.020796    0.000030  19.433    0.00000    0.00000
      19240    51 -109.020826 -109.020796    0.000030  19.433    0.00000    0.00000
      19241    51 -109.020826 -109.020795    0.000031  19.433    0.00000    0.00000
      19242    50 -109.020826 -109.020795    0.000031  19.433    0.00000    0.00000
      19243    51 -109.020826 -109.020794    0.000032  19.433    0.00000    0.00000
      19244    51 -109.020826 -109.020794    0.000032  19.433    0.00000    0.00000
      19245    51 -109.020826 -109.020794    0.000033  19.433    0.00000    0.00000
      19246    51 -109.020826 -109.020794    0.000033  19.433    0.00000    0.00000
      19247    51 -109.020826 -109.020794    0.000033  19.433    0.00000    0.00000
      19248    51 -109.020826 -109.020794    0.000032  19.433    0.00000    0.00000
      19249    51 -109.020826 -109.020794    0.000032  19.433    0.00000    0.00000
      19250    51 -109.020826 -109.020794    0.000032  19.433    0.00000    0.00000
      19251    52 -109.020826 -109.020795    0.000031  19.433    0.00000    0.00000
      19252    51 -109.020826 -109.020795    0.000031  19.433    0.00000    0.00000
      19253    51 -109.020826 -109.020796    0.000030  19.433    0.00000    0.00000
      19254    51 -109.020826 -109.020796    0.000030  19.433    0.00000    0.00000
      19255    52 -109.020826 -109.020797    0.000029  19.433    0.00000    0.00000
      19256    51 -109.020826 -109.020797    0.000029  19.433    0.00000    0.00000
      19257    51 -109.020826 -109.020797    0.000029  19.433    0.00000    0.00000
      19258    51 -109.020826 -109.020798    0.000029  19.433    0.00000    0.00000
      19259    51 -109.020826 -109.020798    0.000028  19.433    0.00000    0.00000
      19260    51 -109.020826 -109.020798    0.000028  19.433    0.00000    0.00000
      19261    51 -109.020826 -109.020798    0.000028  19.433    0.00000    0.00000
      19262    51 -109.020826 -109.020798    0.000028  19.433    0.00000    0.00000
      19263    52 -109.020826 -109.020798    0.000028  19.433    0.00000    0.00000
      19264    51 -109.020826 -109.020797    0.000029  19.433    0.00000    0.00000
      19265    51 -109.020826 -109.020797    0.000029  19.433    0.00000    0.00000
      19266    51 -109.020826 -109.020797    0.000029  19.433    0.00000    0.00000
      19267    51 -109.020826 -109.020797    0.000029  19.433    0.00000    0.00000
      19268    51 -109.020826 -109.020796    0.000030  19.433    0.00000    0.00000
      19269    51 -109.020826 -109.020796    0.000030  19.433    0.00000    0.00000
      19270    51 -109.020826 -109.020796    0.000030  19.433    0.00000    0.00000
      19271    51 -109.020826 -109.020796    0.000030  19.433    0.00000    0.00000
      19272    52 -109.020826 -109.020795    0.000031  19.433    0.00000    0.00000
      19273    52 -109.020826 -109.020795    0.000031  19.433    0.00000    0.00000
      19274    51 -109.020826 -109.020795    0.000031  19.433    0.00000    0.00000
      19275    51 -109.020826 -109.020795    0.000031  19.433    0.00000    0.00000
      19276    51 -109.020826 -109.020795    0.000031  19.433    0.00000    0.00000
      19277    51 -109.020826 -109.020795    0.000031  19.433    0.00000    0.00000
      19278    51 -109.020826 -109.020795    0.000031  19.433    0.00000    0.00000
      19279    51 -109.020826 -109.020795    0.000031  19.433    0.00000    0.00000
      19280    51 -109.020826 -109.020795    0.000031  19.433    0.00000    0.00000
      19281    51 -109.020826 -109.020795    0.000031  19.433    0.00000    0.00000
      19282    51 -109.020826 -109.020796    0.000031  19.433    0.00000    0.00000
      19283    51 -109.020826 -109.020796    0.000030  19.433    0.00000    0.00000
      19284    51 -109.020826 -109.020796    0.000030  19.433    0.00000    0.00000
      19285    51 -109.020826 -109.020796    0.000030  19.433    0.00000    0.00000
      19286    51 -109.020826 -109.020796    0.000030  19.433    0.00000    0.00000
      19287    51 -109.020826 -109.020797    0.000030  19.433    0.00000    0.00000
      19288    51 -109.020826 -109.020797    0.000029  19.433    0.00000    0.00000
      19289    51 -109.020826 -109.020797    0.000029  19.433    0.00000    0.00000
      19290    51 -109.020826 -109.020797    0.000029  19.433    0.00000    0.00000
      19291    51 -109.020826 -109.020797    0.000029  19.433    0.00000    0.00000
      19292    51 -109.020826 -109.020797    0.000029  19.433    0.00000    0.00000
      19293    51 -109.020826 -109.020797    0.000029  19.433    0.00000    0.00000
      19294    51 -109.020826 -109.020797    0.000029  19.433    0.00000    0.00000
      19295    52 -109.020826 -109.020797    0.000029  19.433    0.00000    0.00000
      19296    51 -109.020826 -109.020797    0.000029  19.433    0.00000    0.00000
      19297    51 -109.020826 -109.020797    0.000029  19.433    0.00000    0.00000
      19298    51 -109.020826 -109.020796    0.000030  19.433    0.00000    0.00000
      19299    51 -109.020826 -109.020796    0.000030  19.433    0.00000    0.00000
      19300    51 -109.020826 -109.020796    0.000030  19.433    0.00000    0.00000
      19301    52 -109.020826 -109.020796    0.000030  19.433    0.00000    0.00000
      19302    51 -109.020826 -109.020796    0.000030  19.433    0.00000    0.00000
      19303    51 -109.020826 -109.020796    0.000030  19.433    0.00000    0.00000
      19304    51 -109.020826 -109.020796    0.000031  19.433    0.00000    0.00000
      19305    51 -109.020826 -109.020795    0.000031  19.433    0.00000    0.00000
      19306    51 -109.020826 -109.020795    0.000031  19.433    0.00000    0.00000
      19307    51 -109.020826 -109.020795    0.000031  19.433    0.00000    0.00000
      19308    51 -109.020826 -109.020795    0.000031  19.433    0.00000    0.00000
      19309    51 -109.020826 -109.020795    0.000031  19.433    0.00000    0.00000
      19310    51 -109.020826 -109.020795    0.000031  19.433    0.00000    0.00000
      19311    51 -109.020826 -109.020795    0.000031  19.433    0.00000    0.00000
      19312    51 -109.020826 -109.020796    0.000030  19.433    0.00000    0.00000
      19313    52 -109.020826 -109.020796    0.000030  19.433    0.00000    0.00000
      19314    51 -109.020826 -109.020796    0.000030  19.433    0.00000    0.00000
      19315    51 -109.020826 -109.020796    0.000030  19.433    0.00000    0.00000
      19316    51 -109.020826 -109.020796    0.000030  19.433    0.00000    0.00000
      19317    51 -109.020826 -109.020796    0.000030  19.433    0.00000    0.00000
      19318    51 -109.020826 -109.020796    0.000030  19.433    0.00000    0.00000
      19319    52 -109.020826 -109.020796    0.000030  19.433    0.00000    0.00000
      19320    51 -109.020826 -109.020797    0.000030  19.433    0.00000    0.00000
      19321    51 -109.020826 -109.020797    0.000029  19.433    0.00000    0.00000
      19322    51 -109.020826 -109.020797    0.000029  19.433    0.00000    0.00000
      19323    51 -109.020826 -109.020797    0.000029  19.433    0.00000    0.00000
      19324    51 -109.020826 -109.020797    0.000029  19.433    0.00000    0.00000
      19325    51 -109.020826 -109.020797    0.000029  19.433    0.00000    0.00000
      19326    51 -109.020826 -109.020797    0.000029  19.433    0.00000    0.00000
      19327    51 -109.020826 -109.020796    0.000030  19.433    0.00000    0.00000
      19328    51 -109.020826 -109.020796    0.000030  19.433    0.00000    0.00000
      19329    51 -109.020826 -109.020796    0.000030  19.433    0.00000    0.00000
      19330    52 -109.020826 -109.020796    0.000030  19.433    0.00000    0.00000
      19331    52 -109.020826 -109.020796    0.000030  19.433    0.00000    0.00000
      19332    51 -109.020826 -109.020796    0.000030  19.433    0.00000    0.00000
      19333    51 -109.020826 -109.020796    0.000030  19.433    0.00000    0.00000
      19334    51 -109.020826 -109.020796    0.000030  19.433    0.00000    0.00000
      19335    51 -109.020826 -109.020796    0.000030  19.433    0.00000    0.00000
      19336    51 -109.020826 -109.020796    0.000030  19.433    0.00000    0.00000
      19337    51 -109.020826 -109.020796    0.000030  19.433    0.00000    0.00000
      19338    51 -109.020826 -109.020796    0.000030  19.433    0.00000    0.00000
      19339    51 -109.020826 -109.020796    0.000030  19.433    0.00000    0.00000
      19340    51 -109.020826 -109.020796    0.000030  19.433    0.00000    0.00000
      19341    52 -109.020826 -109.020796    0.000030  19.433    0.00000    0.00000
      19342    52 -109.020826 -109.020796    0.000030  19.433    0.00000    0.00000
      19343    51 -109.020826 -109.020796    0.000030  19.433    0.00000    0.00000
      19344    51 -109.020826 -109.020796    0.000030  19.433    0.00000    0.00000
      19345    51 -109.020826 -109.020796    0.000030  19.433    0.00000    0.00000
      19346    51 -109.020826 -109.020796    0.000030  19.433    0.00000    0.00000
      19347    51 -109.020826 -109.020796    0.000030  19.433    0.00000    0.00000
      19348    51 -109.020826 -109.020796    0.000030  19.433    0.00000    0.00000
      19349    50 -109.020826 -109.020796    0.000030  19.433    0.00000    0.00000
      19350    51 -109.020826 -109.020796    0.000030  19.433    0.00000    0.00000
      19351    51 -109.020826 -109.020796    0.000030  19.433    0.00000    0.00000
      19352    51 -109.020826 -109.020796    0.000030  19.433    0.00000    0.00000
      19353    51 -109.020826 -109.020796    0.000030  19.433    0.00000    0.00000
      19354    51 -109.020826 -109.020796    0.000030  19.433    0.00000    0.00000
      19355    51 -109.020826 -109.020796    0.000030  19.433    0.00000    0.00000
      19356    51 -109.020826 -109.020796    0.000030  19.433    0.00000    0.00000
      19357    51 -109.020826 -109.020796    0.000030  19.433    0.00000    0.00000
      19358    51 -109.020826 -109.020796    0.000030  19.433    0.00000    0.00000
      19359    51 -109.020826 -109.020796    0.000030  19.433    0.00000    0.00000
      19360    51 -109.020826 -109.020796    0.000030  19.433    0.00000    0.00000
      19361    51 -109.020826 -109.020796    0.000030  19.433    0.00000    0.00000
      19362    52 -109.020826 -109.020796    0.000030  19.433    0.00000    0.00000
      19363    51 -109.020826 -109.020796    0.000030  19.433    0.00000    0.00000
      19364    51 -109.020826 -109.020796    0.000030  19.433    0.00000    0.00000
      19365    51 -109.020826 -109.020796    0.000030  19.433    0.00000    0.00000
      19366    51 -109.020826 -109.020796    0.000030  19.433    0.00000    0.00000
      19367    51 -109.020826 -109.020796    0.000030  19.433    0.00000    0.00000
      19368    51 -109.020826 -109.020796    0.000030  19.433    0.00000    0.00000
      19369    51 -109.020826 -109.020796    0.000030  19.433    0.00000    0.00000
      19370    51 -109.020826 -109.020796    0.000030  19.433    0.00000    0.00000
      19371    51 -109.020826 -109.020796    0.000030  19.433    0.00000    0.00000
      19372    51 -109.020826 -109.020796    0.000030  19.433    0.00000    0.00000
      19373    51 -109.020826 -109.020796    0.000030  19.433    0.00000    0.00000
      19374    51 -109.020826 -109.020796    0.000030  19.433    0.00000    0.00000
      19375    51 -109.020826 -109.020796    0.000030  19.433    0.00000    0.00000
      19376    51 -109.020826 -109.020796    0.000030  19.433    0.00000    0.00000
      19377    52 -109.020826 -109.020796    0.000030  19.433    0.00000    0.00000
      19378    52 -109.020826 -109.020796    0.000030  19.433    0.00000    0.00000
      19379    51 -109.020826 -109.020796    0.000030  19.433    0.00000    0.00000
      19380    51 -109.020826 -109.020796    0.000030  19.433    0.00000    0.00000
      19381    51 -109.020826 -109.020796    0.000030  19.433    0.00000    0.00000
      19382    51 -109.020826 -109.020796    0.000030  19.433    0.00000    0.00000
      19383    51 -109.020826 -109.020796    0.000030  19.433    0.00000    0.00000
      19384    51 -109.020826 -109.020796    0.000030  19.433    0.00000    0.00000
      19385    52 -109.020826 -109.020796    0.000030  19.433    0.00000    0.00000
      19386    51 -109.020826 -109.020796    0.000030  19.433    0.00000    0.00000
      19387    52 -109.020826 -109.020796    0.000030  19.433    0.00000    0.00000
      19388    51 -109.020826 -109.020796    0.000030  19.433    0.00000    0.00000
      19389    51 -109.020826 -109.020796    0.000030  19.433    0.00000    0.00000
      19390    51 -109.020826 -109.020796    0.000030  19.433    0.00000    0.00000
      19391    51 -109.020826 -109.020796    0.000030  19.433    0.00000    0.00000
      19392    51 -109.020826 -109.020796    0.000030  19.433    0.00000    0.00000
      19393    52 -109.020826 -109.020796    0.000030  19.433    0.00000    0.00000
      19394    51 -109.020826 -109.020796    0.000030  19.433    0.00000    0.00000
      19395    52 -109.020826 -109.020796    0.000030  19.433    0.00000    0.00000
      19396    51 -109.020826 -109.020796    0.000030  19.433    0.00000    0.00000
      19397    51 -109.020826 -109.020796    0.000030  19.433    0.00000    0.00000
      19398    51 -109.020826 -109.020796    0.000030  19.433    0.00000    0.00000
      19399    51 -109.020826 -109.020796    0.000030  19.433    0.00000    0.00000

        ==> Orbital Optimization <==

            Jacobi Optimization converged.
            Total energy change: -2.449951e-11

      19400    51 -109.020826 -109.020836    0.000010  19.490    0.00000    0.00000

        ==> Orbital Optimization <==

            Jacobi Optimization converged.
            Total energy change: -6.679102e-12


      v2RDM iterations converged!

      v2RDM total spin [S(S+1)]:            -0.000000
    * v2RDM total energy:           -109.020825978425



Properties will be evaluated at   0.000000,   0.000000,   0.000000 Bohr


Properties will be evaluated at   0.000000,   0.000000,   0.000000 Bohr

  Mulliken Charges: (a.u.)

   Center  Symbol    Alpha    Beta     Spin     Total
       1     N     3.50000  3.50000  0.00000  0.00000
       2     N     3.50000  3.50000  0.00000  0.00000

   Total alpha =  7.00000, Total beta =  7.00000, Total charge =  0.00000

 # Natural Orbital Occupation Numbers (alpha) #
 Irrep: 1
      1:  1.0000000
      2:  1.0000000
      3:  0.9900093
      4:  0.0000000
      5:  0.0000000

 Irrep: 2

 Irrep: 3
      1:  0.0362980
      2:  0.0000000

 Irrep: 4
      1:  0.0362980
      2:  0.0000000

 Irrep: 5

 Irrep: 6
      1:  1.0000000
      2:  1.0000000
      3:  0.0099910
      4:  0.0000000
      5:  0.0000000

 Irrep: 7
      1:  0.9637018
      2:  0.0000000

 Irrep: 8
      1:  0.9637018
      2:  0.0000000


 # Natural Orbital Occupation Numbers (beta) #
 Irrep: 1
      1:  1.0000000
      2:  1.0000000
      3:  0.9899896
      4:  0.0000000
      5:  0.0000000

 Irrep: 2

 Irrep: 3
      1:  0.0362937
      2:  0.0000000

 Irrep: 4
      1:  0.0362937
      2:  0.0000000

 Irrep: 5

 Irrep: 6
      1:  1.0000000
      2:  1.0000000
      3:  0.0100106
      4:  0.0000000
      5:  0.0000000

 Irrep: 7
      1:  0.9637062
      2:  0.0000000

 Irrep: 8
      1:  0.9637062
      2:  0.0000000


*** tstop() called on ubuntu at Wed Aug 19 09:12:26 2015
Module time:
	user time   =     260.72 seconds =       4.35 minutes
	system time =       4.35 seconds =       0.07 minutes
	total time  =         59 seconds =       0.98 minutes
Total time:
	user time   =     321.85 seconds =       5.36 minutes
	system time =       5.39 seconds =       0.09 minutes
	total time  =         73 seconds =       1.22 minutes

*** PSI4 exiting successfully. Buy a developer a beer!
