    -----------------------------------------------------------------------
          Psi4: An Open-Source Ab Initio Electronic Structure Package
                              Psi4  Driver

                          Git: Rev {detached?}  

    J. M. Turney, A. C. Simmonett, R. M. Parrish, E. G. Hohenstein,
    F. A. Evangelista, J. T. Fermann, B. J. Mintz, L. A. Burns, J. J. Wilke,
    M. L. Abrams, N. J. Russ, M. L. Leininger, C. L. Janssen, E. T. Seidl,
    W. D. Allen, H. F. Schaefer, R. A. King, E. F. Valeev, C. D. Sherrill,
    and T. D. Crawford, WIREs Comput. Mol. Sci. 2, 556-565 (2012)
    (doi: 10.1002/wcms.93)

                         Additional Contributions by
    A. E. DePrince, M. Saitow, U. Bozkaya, A. Yu. Sokolov
    -----------------------------------------------------------------------


    Psi4 started on: Wed Aug 19 08:56:42 2015

    Process ID:  19605
    PSI4DATADIR: /apps/software/psi4public-master/install/share/psi
    Memory level set to 256.000 MB

  ==> Input File <==

--------------------------------------------------------------------------

# PYTHONPATH must include directory above plugin directory.
#     Define either externally or here, then import plugin.
sys.path.insert(0, '../..')
import v2rdm_casscf

molecule mol {
0 1
n
n 1 r
}

set {
  guess sad
  basis cc-pvdz
  scf_type pk
  df_basis_scf cc-pvdz-jkfit 
  d_convergence 1e-10
  maxiter 500
  reference rhf
  frozen_docc  [ 2, 0, 0, 0, 0, 2, 0, 0 ]
  frozen_uocc  [ 4, 1, 2, 2, 1, 4, 2, 2 ]
  #frozen_docc  [  4 ]
  #frozen_uocc  [ 18 ]
}
set v2rdm_casscf {
  positivity dqg
  constrain_spin true
  constrain_d3   false
  spin_adapt_g2  false
  spin_adapt_q2  false
  r_convergence  1e-4
  e_convergence  1e-4
  cg_convergence 1e-6
  jacobi_write 1
  jacobi_nthread 8
  maxiter 20000
}

activate(mol)
mol.r = 0.5
energy('v2rdm-casscf')
mol.r = 1.1
energy('v2rdm-casscf')
--------------------------------------------------------------------------
/home/greg/v2rdm_casscf/v2rdm_casscf.so loaded.
Setting geometry variable r to 0.500000

*** tstart() called on ubuntu
*** at Wed Aug 19 08:56:42 2015


         ---------------------------------------------------------
                                   SCF
            by Justin Turney, Rob Parrish, and Andy Simmonett
                              RHF Reference
                        1 Threads,    256 MiB Core
         ---------------------------------------------------------

  ==> Geometry <==

    Molecular point group: d2h
    Full point group: D_inf_h

    Geometry (in Angstrom), charge = 0, multiplicity = 1:

       Center              X                  Y                   Z       
    ------------   -----------------  -----------------  -----------------
           N          0.000000000000     0.000000000000    -0.250000000000
           N          0.000000000000     0.000000000000     0.250000000000

  Running in d2h symmetry.

  Rotational constants: A = ************  B =      9.63082  C =      9.63082 [cm^-1]
  Rotational constants: A = ************  B = 288724.60708  C = 288724.60708 [MHz]
  Nuclear repulsion =   51.859366441820001

  Charge       = 0
  Multiplicity = 1
  Electrons    = 14
  Nalpha       = 7
  Nbeta        = 7

  ==> Algorithm <==

  SCF Algorithm Type is PK.
  DIIS enabled.
  MOM disabled.
  Fractional occupation disabled.
  Guess Type is SAD.
  Energy threshold   = 1.00e-08
  Density threshold  = 1.00e-10
  Integral threshold = 0.00e+00

  ==> Primary Basis <==

  Basis Set: CC-PVDZ
    Number of shells: 12
    Number of basis function: 28
    Number of Cartesian functions: 30
    Spherical Harmonics?: true
    Max angular momentum: 2

  ==> Pre-Iterations <==

   -------------------------------------------------------
    Irrep   Nso     Nmo     Nalpha   Nbeta   Ndocc  Nsocc
   -------------------------------------------------------
     Ag         7       7       0       0       0       0
     B1g        1       1       0       0       0       0
     B2g        3       3       0       0       0       0
     B3g        3       3       0       0       0       0
     Au         1       1       0       0       0       0
     B1u        7       7       0       0       0       0
     B2u        3       3       0       0       0       0
     B3u        3       3       0       0       0       0
   -------------------------------------------------------
    Total      28      28       7       7       7       0
   -------------------------------------------------------

  Starting with a DF guess...

 OEINTS: Overlap, kinetic, potential, dipole, and quadrupole integrals
         stored in file 35.

  ==> Integral Setup <==

  ==> DFJK: Density-Fitted J/K Matrices <==

    J tasked:                  Yes
    K tasked:                  Yes
    wK tasked:                  No
    OpenMP threads:              1
    Integrals threads:           1
    Memory (MB):               183
    Algorithm:                Core
    Integral Cache:           SAVE
    Schwarz Cutoff:          1E-12
    Fitting Condition:       1E-12

   => Auxiliary Basis Set <=

  Basis Set: CC-PVDZ-JKFIT
    Number of shells: 48
    Number of basis function: 140
    Number of Cartesian functions: 162
    Spherical Harmonics?: true
    Max angular momentum: 3

  Minimum eigenvalue in the overlap matrix is 1.5735752976E-04.
  Using Symmetric Orthogonalization.
  SCF Guess: Superposition of Atomic Densities via on-the-fly atomic UHF.

  ==> Iterations <==

                           Total Energy        Delta E     RMS |[F,P]|

   @DF-RHF iter   0:  -108.43300160575647   -1.08433e+02   6.40175e-01 
   @DF-RHF iter   1:  -102.97596888747357    5.45703e+00   3.61535e-02 
   @DF-RHF iter   2:  -103.03910400743167   -6.31351e-02   8.04210e-03 DIIS
   @DF-RHF iter   3:  -103.04274607531816   -3.64207e-03   1.69846e-03 DIIS
   @DF-RHF iter   4:  -103.04303501400425   -2.88939e-04   1.63294e-04 DIIS
   @DF-RHF iter   5:  -103.04303794669987   -2.93270e-06   2.21403e-05 DIIS
   @DF-RHF iter   6:  -103.04303799619602   -4.94962e-08   1.69559e-06 DIIS
   @DF-RHF iter   7:  -103.04303799648277   -2.86747e-10   1.89839e-07 DIIS
   @DF-RHF iter   8:  -103.04303799648598   -3.21165e-12   9.16442e-09 DIIS
   @DF-RHF iter   9:  -103.04303799648592    5.68434e-14   6.29584e-10 DIIS
   @DF-RHF iter  10:  -103.04303799648595   -2.84217e-14   6.29241e-11 DIIS

  DF guess converged.

  ==> Integral Setup <==

 MINTS: Wrapper to libmints.
   by Justin Turney

   Calculation information:
      Number of atoms:                   2
      Number of AO shells:              12
      Number of SO shells:               6
      Number of primitives:             44
      Number of atomic orbitals:        30
      Number of basis functions:        28

      Number of irreps:                  8
      Integral cutoff                 0.00e+00
      Number of functions per irrep: [   7    1    3    3    1    7    3    3 ]

 OEINTS: Overlap, kinetic, potential, dipole, and quadrupole integrals
         stored in file 35.

      Computing two-electron integrals...done
      Computed 11509 non-zero two-electron integrals.
        Stored in file 33.

	Batch   1 pq = [       0,      82] index = [             0,3403]
  ==> DiskJK: Disk-Based J/K Matrices <==

    J tasked:                  Yes
    K tasked:                  Yes
    wK tasked:                  No
    Memory (MB):               183
    Schwarz Cutoff:          1E-12

   @RHF iter  11:  -103.04337417168954   -3.36175e-04   2.37860e-05 DIIS
   @RHF iter  12:  -103.04337420285769   -3.11682e-08   5.68873e-06 DIIS
   @RHF iter  13:  -103.04337420418118   -1.32349e-09   9.13090e-07 DIIS
   @RHF iter  14:  -103.04337420425249   -7.13101e-11   1.04603e-07 DIIS
   @RHF iter  15:  -103.04337420425374   -1.25056e-12   1.37782e-08 DIIS
   @RHF iter  16:  -103.04337420425368    5.68434e-14   1.37212e-09 DIIS
   @RHF iter  17:  -103.04337420425365    2.84217e-14   1.64562e-10 DIIS
   @RHF iter  18:  -103.04337420425371   -5.68434e-14   9.88117e-12 DIIS

  ==> Post-Iterations <==

    Orbital Energies (a.u.)
    -----------------------

    Doubly Occupied:                                                      

       1Ag   -16.484161     1B1u  -15.785893     2Ag    -1.444309  
       1B3u   -1.176599     1B2u   -1.176599     2B1u   -0.543616  
       3Ag    -0.524272  

    Virtual:                                                              

       1B3g    0.538181     1B2g    0.538181     2B3u    0.594641  
       2B2u    0.594641     3B1u    0.614128     4Ag     0.726476  
       5Ag     1.055370     2B3g    1.450590     2B2g    1.450590  
       1B1g    1.682008     6Ag     1.682008     4B1u    1.789550  
       3B3u    2.801107     3B2u    2.801107     5B1u    2.816412  
       6B1u    2.841104     1Au     2.841104     7Ag     3.148621  
       3B2g    4.716074     3B3g    4.716074     7B1u   13.525785  

    Final Occupation by Irrep:
             Ag   B1g   B2g   B3g    Au   B1u   B2u   B3u 
    DOCC [     3,    0,    0,    0,    0,    2,    1,    1 ]

  Energy converged.

  @RHF Final Energy:  -103.04337420425371

   => Energetics <=

    Nuclear Repulsion Energy =             51.8593664418200007
    One-Electron Energy =                -235.5345802015529841
    Two-Electron Energy =                  80.6318395554792460
    DFT Exchange-Correlation Energy =       0.0000000000000000
    Empirical Dispersion Energy =           0.0000000000000000
    PCM Polarization Energy =               0.0000000000000000
    EFP Energy =                            0.0000000000000000
    Total Energy =                       -103.0433742042537233

    Alert: EFP and PCM quantities not currently incorporated into SCF psivars.

Properties will be evaluated at   0.000000,   0.000000,   0.000000 Bohr
  ==> Properties <==


Properties computed using the SCF density matrix

  Nuclear Dipole Moment: (a.u.)
     X:     0.0000      Y:     0.0000      Z:     0.0000

  Electronic Dipole Moment: (a.u.)
     X:     0.0000      Y:     0.0000      Z:     0.0000

  Dipole Moment: (a.u.)
     X:     0.0000      Y:     0.0000      Z:     0.0000     Total:     0.0000

  Dipole Moment: (Debye)
     X:     0.0000      Y:     0.0000      Z:     0.0000     Total:     0.0000


  Saving occupied orbitals to File 180.

*** tstop() called on ubuntu at Wed Aug 19 08:56:43 2015
Module time:
	user time   =       0.59 seconds =       0.01 minutes
	system time =       0.01 seconds =       0.00 minutes
	total time  =          1 seconds =       0.02 minutes
Total time:
	user time   =       0.59 seconds =       0.01 minutes
	system time =       0.01 seconds =       0.00 minutes
	total time  =          1 seconds =       0.02 minutes
Reading options from the V2RDM_CASSCF block
Calling plugin v2rdm_casscf.so.

*** tstart() called on ubuntu
*** at Wed Aug 19 08:56:43 2015



        *******************************************************
        *                                                     *
        *    v-2RDM                                           *
        *                                                     *
        *    Ground-state variational 2-RDM optimization      *
        *    using a boundary-point semidefinite solver       *
        *                                                     *
        *    Eugene DePrince                                  *
        *                                                     *
        *******************************************************

  ==> Input parameters <==

        Freeze core orbitals?                 yes
        Number of frozen core orbitals:         4
        Number of active occupied orbitals:     3
        Number of active virtual orbitals:      3
        Number of frozen virtual orbitals:     18
        r_convergence:                  1.000e-04
        e_convergence:                  1.000e-04
        cg_convergence:                 1.000e-06
        maxiter:                            20000
        cg_maxiter:                         10000

  ==> Memory requirements <==

        D2:                          0.00 mb
        Q2:                          0.00 mb
        G2:                          0.01 mb

        Total number of variables:           1500
        Total number of constraints:         1282
        Total memory requirements:        4.87 mb

    ==> Transform two-electron integrals <==

	Presorting SO-basis two-electron integrals.
	Sorting File: SO Ints (nn|nn) nbuckets = 1
	Transforming the one-electron integrals and constructing Fock matrices
	Starting first half-transformation.
	Sorting half-transformed integrals.
	First half integral transformation complete.
	Starting second half-transformation.
	Two-electron integral transformation complete.

        Time for integral transformation:     0.01 s


        Read integrals......done.


    reference energy:        -103.043374204254
    frozen core energy:      -138.046901361584
    initial 2-RDM energy:     -73.010113727466

      oiter iiter        E(p)        E(d)      E gap)      mu     eps(p)     eps(d)
          0    72 -113.941494  144.409552  258.351047   1.000   50.74152   72.62452
          1    40  -82.916089 -268.306827  185.390738   1.000    9.54556   30.76570
          2    48 -110.291919 -113.267201    2.975282   1.000   14.00192    6.56330
          3    39  -97.934013 -103.536899    5.602886   1.000    6.27812    3.71738
          4    42 -101.744713 -102.023754    0.279041   1.000    3.34138    2.97734
          5    42  -98.738901  -99.772878    1.033977   1.000    1.77532    2.12900
          6    35 -101.064140  -98.945790    2.118350   1.000    1.26983    1.55017
          7    38 -100.450700  -97.696374    2.754326   1.000    0.81437    1.45602
          8    37 -101.367863 -100.009773    1.358090   1.000    0.58973    0.87811
          9    42 -101.053086 -100.255586    0.797499   1.000    0.24508    0.67622
         10    42 -101.430850 -100.232601    1.198249   1.000    0.22707    0.53731
         11    38 -101.465011  -99.907495    1.557516   1.000    0.19767    0.45878
         12    34 -101.745595  -99.926150    1.819446   1.000    0.16134    0.42016
         13    41 -101.845882 -100.140844    1.705037   1.000    0.17639    0.38936
         14    40 -101.991314 -100.408777    1.582538   1.000    0.15330    0.37369
         15    40 -102.066651 -100.529698    1.536952   1.000    0.14244    0.36035
         16    38 -102.181292 -100.561141    1.620151   1.000    0.15558    0.34699
         17    40 -102.273560 -100.624682    1.648878   1.000    0.16597    0.33607
         18    33 -102.377451 -100.694357    1.683094   1.000    0.17042    0.32790
         19    37 -102.467494 -100.835938    1.631556   1.000    0.16235    0.31747
         20    38 -102.547754 -101.031826    1.515928   1.000    0.16801    0.29544
         21    39 -102.599994 -101.370807    1.229187   1.000    0.19901    0.25471
         22    41 -102.630574 -101.865721    0.764853   1.000    0.22720    0.20315
         23    41 -102.646364 -102.332518    0.313845   1.000    0.20881    0.17546
         24    38 -102.654719 -102.606729    0.047990   1.000    0.15942    0.17753
         25    32 -102.659324 -102.659963    0.000638   1.000    0.11557    0.17791
         26    38 -102.670335 -102.553526    0.116809   1.000    0.09670    0.16945
         27    41 -102.686389 -102.335711    0.350678   1.000    0.09464    0.15997
         28    41 -102.711977 -102.103000    0.608977   1.000    0.08987    0.15474
         29    37 -102.741490 -101.946890    0.794599   1.000    0.08231    0.15178
         30    32 -102.770055 -101.892354    0.877702   1.000    0.07606    0.15001
         31    38 -102.794704 -101.913277    0.881427   1.000    0.06927    0.14858
         32    38 -102.815910 -101.994851    0.821059   1.000    0.06067    0.14682
         33    38 -102.834048 -102.104068    0.729979   1.000    0.06536    0.14346
         34    39 -102.847543 -102.254298    0.593245   1.000    0.08232    0.13758
         35    34 -102.853739 -102.396882    0.456856   1.000    0.08353    0.13175
         36    32 -102.857194 -102.454287    0.402907   1.000    0.07068    0.12840
         37    38 -102.865997 -102.402809    0.463188   1.000    0.05993    0.12697
         38    38 -102.884622 -102.306963    0.577659   1.000    0.04741    0.12740
         39    34 -102.907048 -102.231853    0.675195   1.000    0.02982    0.12823
         40    32 -102.931499 -102.205157    0.726342   1.000    0.01950    0.12773
         41    41 -102.952763 -102.226811    0.725951   1.000    0.02663    0.12590
         42    41 -102.970037 -102.270205    0.699832   1.000    0.03116    0.12447
         43    40 -102.983167 -102.306999    0.676168   1.000    0.02759    0.12435
         44    38 -102.994673 -102.319339    0.675335   1.000    0.01963    0.12488
         45    32 -103.006385 -102.307075    0.699310   1.000    0.01344    0.12511
         46    38 -103.019399 -102.282625    0.736775   1.000    0.01377    0.12484
         47    40 -103.034515 -102.260157    0.774359   1.000    0.01710    0.12431
         48    40 -103.048337 -102.251615    0.796721   1.000    0.03679    0.11848
         49    36 -103.068549 -102.335657    0.732892   1.000    0.11760    0.08978
         50    41 -103.098903 -102.727756    0.371147   1.000    0.15263    0.03665
         51    47 -103.095893 -103.197041    0.101148   1.000    0.12768    0.03852
         52    42 -103.075648 -103.498972    0.423324   1.000    0.06874    0.05402
         53    38 -103.049576 -103.564354    0.514778   1.000    0.02659    0.05209
         54    41 -103.028665 -103.428911    0.400246   1.000    0.06022    0.03898
         55    41 -103.019139 -103.187456    0.168317   1.000    0.07713    0.02029
         56    42 -103.023403 -102.951552    0.071851   1.000    0.06437    0.01357
         57    46 -103.036444 -102.806070    0.230373   1.000    0.03320    0.02466
         58    32 -103.051628 -102.785731    0.265897   1.000    0.01576    0.02682
         59    41 -103.061479 -102.863222    0.198257   1.000    0.03504    0.01959
         60    41 -103.065007 -102.988606    0.076401   1.000    0.04280    0.00728
         61    48 -103.061884 -103.108343    0.046459   1.000    0.03510    0.00679
         62    47 -103.054674 -103.179402    0.124729   1.000    0.01936    0.01337
         63    32 -103.047266 -103.186681    0.139415   1.000    0.01258    0.01398
         64    40 -103.042436 -103.142939    0.100503   1.000    0.02028    0.00974
         65    41 -103.041175 -103.075221    0.034045   1.000    0.02315    0.00406
         66    42 -103.043239 -103.013737    0.029502   1.000    0.01894    0.00469
         67    41 -103.046995 -102.979649    0.067346   1.000    0.01246    0.00747
         68    35 -103.050698 -102.978995    0.071702   1.000    0.01132    0.00750
         69    41 -103.052934 -103.003274    0.049660   1.000    0.01442    0.00532
         70    41 -103.053530 -103.038305    0.015225   1.000    0.01531    0.00283
         71    48 -103.052504 -103.069457    0.016953   1.000    0.01319    0.00324
         72    42 -103.050437 -103.086776    0.036339   1.000    0.01036    0.00451
         73    35 -103.048286 -103.087968    0.039682   1.000    0.00976    0.00451
         74    39 -103.046919 -103.075064    0.028145   1.000    0.01079    0.00341
         75    41 -103.046465 -103.056108    0.009643   1.000    0.01111    0.00223
         76    41 -103.046296 -103.038749    0.007547   1.000    0.00956    0.00248
         77    41 -103.047544 -103.029644    0.017900   1.000    0.00877    0.00276
         78    38 -103.048548 -103.029422    0.019126   1.000    0.00876    0.00270
         79    41 -103.049550 -103.035239    0.014312   1.000    0.00898    0.00228
         80    47 -103.049844 -103.044174    0.005669   1.000    0.00903    0.00179
         81    43 -103.049635 -103.052534    0.002898   1.000    0.00872    0.00172
         82    47 -103.049086 -103.058362    0.009276   1.000    0.00828    0.00187
         83    41 -103.048377 -103.059904    0.011527   1.000    0.00794    0.00193
         84    41 -103.047894 -103.057795    0.009901   1.000    0.00785    0.00174
         85    41 -103.047597 -103.053142    0.005545   1.000    0.00781    0.00146
         86    41 -103.047651 -103.047874    0.000223   1.000    0.00770    0.00134
         87    41 -103.047925 -103.043870    0.004054   1.000    0.00754    0.00138
         88    41 -103.048315 -103.042226    0.006089   1.000    0.00744    0.00140
         89    41 -103.048649 -103.042975    0.005674   1.000    0.00741    0.00133
         90    41 -103.048840 -103.045364    0.003476   1.000    0.00738    0.00122
         91    41 -103.048852 -103.048275    0.000577   1.000    0.00731    0.00114
         92    41 -103.049238 -103.050661    0.001422   1.000    0.00695    0.00116
         93    41 -103.050065 -103.052200    0.002135   1.000    0.00629    0.00120
         94    41 -103.050031 -103.052765    0.002733   1.000    0.00610    0.00115
         95    42 -103.050439 -103.051682    0.001243   1.000    0.00568    0.00110
         96    42 -103.050549 -103.050132    0.000417   1.000    0.00560    0.00100
         97    43 -103.050440 -103.048309    0.002131   1.000    0.00554    0.00095
         98    47 -103.050487 -103.046764    0.003723   1.000    0.00548    0.00099
         99    43 -103.050500 -103.046244    0.004256   1.000    0.00545    0.00094
        100    42 -103.050499 -103.046512    0.003987   1.000    0.00541    0.00093
        101    41 -103.050521 -103.047380    0.003141   1.000    0.00537    0.00092
        102    42 -103.050513 -103.048511    0.002002   1.000    0.00528    0.00089
        103    43 -103.050504 -103.049452    0.001052   1.000    0.00521    0.00086
        104    43 -103.050505 -103.050076    0.000429   1.000    0.00513    0.00088
        105    43 -103.050496 -103.050276    0.000220   1.000    0.00505    0.00085
        106    47 -103.050459 -103.049937    0.000522   1.000    0.00496    0.00089
        107    45 -103.050442 -103.049576    0.000866   1.000    0.00484    0.00088
        108    47 -103.050423 -103.049271    0.001152   1.000    0.00463    0.00101
        109    47 -103.050399 -103.049554    0.000845   1.000    0.00454    0.00091
        110    41 -103.050370 -103.050123    0.000246   1.000    0.00448    0.00078
        111    47 -103.050358 -103.050015    0.000344   1.000    0.00449    0.00071
        112    51 -103.050346 -103.049139    0.001207   1.000    0.00451    0.00067
        113    51 -103.050315 -103.048045    0.002271   1.000    0.00442    0.00083
        114    47 -103.050262 -103.047546    0.002716   1.000    0.00437    0.00067
        115    51 -103.050270 -103.047240    0.003030   1.000    0.00428    0.00063
        116    47 -103.050266 -103.047339    0.002927   1.000    0.00422    0.00060
        117    47 -103.050261 -103.047686    0.002575   1.000    0.00411    0.00064
        118    47 -103.050218 -103.048439    0.001779   1.000    0.00409    0.00057
        119    47 -103.050222 -103.048578    0.001644   1.000    0.00409    0.00055
        120    47 -103.050179 -103.048671    0.001508   1.000    0.00408    0.00054
        121    54 -103.050157 -103.048422    0.001735   1.000    0.00407    0.00053
        122    47 -103.050142 -103.048184    0.001958   1.000    0.00403    0.00059
        123    46 -103.050114 -103.048319    0.001794   1.000    0.00400    0.00054
        124    47 -103.050131 -103.048191    0.001940   1.000    0.00399    0.00051
        125    53 -103.050089 -103.048156    0.001933   1.000    0.00396    0.00049
        126    47 -103.050092 -103.048030    0.002062   1.000    0.00394    0.00048
        127    54 -103.050065 -103.047938    0.002128   1.000    0.00391    0.00048
        128    47 -103.050058 -103.047932    0.002125   1.000    0.00389    0.00054
        129    46 -103.050026 -103.048183    0.001843   1.000    0.00385    0.00049
        130    53 -103.050358 -103.047904    0.002454   1.000    0.00382    0.00051
        131    47 -103.050115 -103.048235    0.001879   1.000    0.00378    0.00047
        132    47 -103.050237 -103.047885    0.002352   1.000    0.00376    0.00045
        133    47 -103.050061 -103.047981    0.002081   1.000    0.00370    0.00049
        134    47 -103.050126 -103.047941    0.002185   1.000    0.00369    0.00045
        135    46 -103.049902 -103.048028    0.001874   1.000    0.00368    0.00050
        136    53 -103.049843 -103.048213    0.001630   1.000    0.00376    0.00049
        137    54 -103.049847 -103.048519    0.001328   1.000    0.00372    0.00044
        138    54 -103.049827 -103.048530    0.001297   1.000    0.00370    0.00042
        139    54 -103.049816 -103.048425    0.001391   1.000    0.00367    0.00041
        140    54 -103.049783 -103.048253    0.001530   1.000    0.00366    0.00040
        141    54 -103.049770 -103.048028    0.001741   1.000    0.00365    0.00039
        142    54 -103.049938 -103.047749    0.002189   1.000    0.00355    0.00041
        143    53 -103.049969 -103.047648    0.002321   1.000    0.00355    0.00046
        144    47 -103.049959 -103.047618    0.002340   1.000    0.00355    0.00040
        145    53 -103.049956 -103.047525    0.002431   1.000    0.00352    0.00038
        146    54 -103.049939 -103.047550    0.002389   1.000    0.00350    0.00037
        147    54 -103.049911 -103.047564    0.002347   1.000    0.00347    0.00040
        148    46 -103.049859 -103.047817    0.002042   1.000    0.00346    0.00051
        149    42 -103.049903 -103.048387    0.001516   1.000    0.00348    0.00041
        150    47 -103.049857 -103.048741    0.001116   1.000    0.00346    0.00057
        151    42 -103.049900 -103.049053    0.000847   1.000    0.00350    0.00043
        152    42 -103.049846 -103.049032    0.000814   1.000    0.00351    0.00039
        153    42 -103.049845 -103.048674    0.001171   1.000    0.00351    0.00050
        154    41 -103.049768 -103.048532    0.001235   1.000    0.00355    0.00047
        155    45 -103.049793 -103.048488    0.001304   1.000    0.00354    0.00037
        156    47 -103.049747 -103.048231    0.001516   1.000    0.00356    0.00034
        157    48 -103.049752 -103.047872    0.001881   1.000    0.00356    0.00031
        158    47 -103.049735 -103.047482    0.002253   1.000    0.00355    0.00031
        159    48 -103.049742 -103.047198    0.002544   1.000    0.00351    0.00041
        160    46 -103.049716 -103.047204    0.002512   1.000    0.00331    0.00052
        161    47 -103.049704 -103.047628    0.002076   1.000    0.00322    0.00046
        162    46 -103.049739 -103.048317    0.001422   1.000    0.00320    0.00054
        163    40 -103.049754 -103.049103    0.000652   1.000    0.00325    0.00042
        164    45 -103.049721 -103.049523    0.000198   1.000    0.00328    0.00038
        165    47 -103.049615 -103.049525    0.000090   1.000    0.00316    0.00058
        166    42 -103.049617 -103.049711    0.000094   1.000    0.00316    0.00066
        167    40 -103.049533 -103.049781    0.000247   1.000    0.00315    0.00047
        168    45 -103.049525 -103.049590    0.000065   1.000    0.00324    0.00037
        169    42 -103.049509 -103.049021    0.000488   1.000    0.00331    0.00032
        170    47 -103.049528 -103.048313    0.001214   1.000    0.00334    0.00043
        171    41 -103.049549 -103.047898    0.001651   1.000    0.00333    0.00035
        172    47 -103.049538 -103.047543    0.001995   1.000    0.00332    0.00029
        173    46 -103.049528 -103.047204    0.002324   1.000    0.00329    0.00027
        174    46 -103.049515 -103.046896    0.002619   1.000    0.00326    0.00026
        175    47 -103.049516 -103.046611    0.002905   1.000    0.00322    0.00026
        176    45 -103.049532 -103.046483    0.003049   1.000    0.00317    0.00028
        177    46 -103.049459 -103.046585    0.002874   1.000    0.00280    0.00035
        178    42 -103.049446 -103.046904    0.002541   1.000    0.00276    0.00027
        179    46 -103.049421 -103.047314    0.002107   1.000    0.00271    0.00023
        180    47 -103.049411 -103.047709    0.001702   1.000    0.00272    0.00021
        181    47 -103.049401 -103.048025    0.001375   1.000    0.00272    0.00022
        182    47 -103.049305 -103.048225    0.001080   1.000    0.00249    0.00033
        183    42 -103.049312 -103.048441    0.000871   1.000    0.00252    0.00027
        184    47 -103.049279 -103.048539    0.000740   1.000    0.00251    0.00025
        185    49 -103.049274 -103.048528    0.000746   1.000    0.00254    0.00024
        186    47 -103.049256 -103.048402    0.000854   1.000    0.00256    0.00022
        187    47 -103.049247 -103.048172    0.001076   1.000    0.00259    0.00020
        188    47 -103.049237 -103.047871    0.001366   1.000    0.00259    0.00019
        189    47 -103.049231 -103.047554    0.001677   1.000    0.00259    0.00019
        190    47 -103.049225 -103.047263    0.001961   1.000    0.00257    0.00019
        191    47 -103.049222 -103.047030    0.002192   1.000    0.00255    0.00019
        192    49 -103.049220 -103.046870    0.002350   1.000    0.00252    0.00019
        193    49 -103.049221 -103.046793    0.002429   1.000    0.00249    0.00020
        194    48 -103.049223 -103.046798    0.002424   1.000    0.00246    0.00020
        195    49 -103.049223 -103.046882    0.002341   1.000    0.00244    0.00019
        196    49 -103.049223 -103.047030    0.002193   1.000    0.00243    0.00019
        197    49 -103.049220 -103.047222    0.001998   1.000    0.00241    0.00018
        198    49 -103.049215 -103.047431    0.001784   1.000    0.00241    0.00018
        199    49 -103.049207 -103.047630    0.001577   1.000    0.00240    0.00018

        ==> Orbital Optimization <==

            Jacobi Optimization did not converge.
            Total energy change: -2.741127e-02

        200    49 -103.076608 -101.669303    1.407306  13.518    0.00241    0.00018
        201    92 -103.091374 -100.196096    2.895278  13.518    0.03225    0.40100
        202    61 -103.102152 -101.621148    1.481004  13.518    0.03998    0.27464
        203    59 -103.102131 -103.307313    0.205182  13.518    0.03709    0.20316
        204    54 -103.097688 -104.535242    1.437554  13.518    0.02300    0.24091
        205    54 -103.090849 -104.964950    1.874101  13.518    0.00958    0.24602
        206    61 -103.085890 -104.612824    1.526934  13.518    0.01574    0.21253
        207    59 -103.084775 -103.785206    0.700431  13.518    0.02196    0.15951
        208    59 -103.087561 -102.892634    0.194926  13.518    0.02054    0.13245
        209    55 -103.089934 -102.346952    0.742982  13.518    0.01348    0.15169
        210    54 -103.098761 -102.449680    0.649081  13.518    0.00945    0.13412
        211    61 -103.099086 -102.704633    0.394453  13.518    0.01173    0.10927
        212    55 -103.102496 -103.005617    0.096880  13.518    0.01171    0.09161
        213    54 -103.102446 -103.275291    0.172845  13.518    0.01109    0.07939
        214    53 -103.102745 -103.456616    0.353870  13.518    0.00957    0.07737
        215    49 -103.100967 -103.555736    0.454769  13.518    0.00939    0.07858
        216    38 -103.101915 -103.583271    0.481357  13.518    0.00814    0.08096
        217    53 -103.101749 -103.593454    0.491704  13.518    0.00846    0.08827
        218    47 -103.097474 -103.627593    0.530120  13.518    0.00614    0.09172
        219    43 -103.095009 -103.669172    0.574163  13.518    0.00509    0.09540
        220    53 -103.093046 -103.741727    0.648681  13.518    0.00504    0.09092
        221    55 -103.090874 -103.685779    0.594906  13.518    0.00593    0.08524
        222    60 -103.089112 -103.622130    0.533018  13.518    0.00678    0.08301
        223    54 -103.087596 -103.537651    0.450056  13.518    0.00746    0.07238
        224    53 -103.085935 -103.434022    0.348087  13.518    0.00757    0.06174
        225    54 -103.084919 -103.329627    0.244708  13.518    0.00758    0.05242
        226    55 -103.084267 -103.234071    0.149803  13.518    0.00697    0.04432
        227    55 -103.084573 -103.133513    0.048940  13.518    0.00687    0.03967
        228    55 -103.085304 -103.028834    0.056470  13.518    0.00658    0.04066
        229    55 -103.086480 -102.929304    0.157176  13.518    0.00607    0.04470
        230    55 -103.087791 -102.848661    0.239129  13.518    0.00520    0.04892
        231    54 -103.089181 -102.795999    0.293182  13.518    0.00412    0.05214
        232    53 -103.090610 -102.779092    0.311518  13.518    0.00322    0.05305
        233    47 -103.092045 -102.789956    0.302088  13.518    0.00282    0.05140
        234    53 -103.093185 -102.822701    0.270484  13.518    0.00276    0.04765
        235    53 -103.094011 -102.876435    0.217576  13.518    0.00321    0.04233
        236    55 -103.094932 -102.940947    0.153985  13.518    0.00350    0.03534
        237    53 -103.095500 -102.999873    0.095627  13.518    0.00377    0.02817
        238    53 -103.095825 -103.060482    0.035342  13.518    0.00385    0.02236
        239    52 -103.095779 -103.119957    0.024179  13.518    0.00383    0.02121
        240    53 -103.095265 -103.184064    0.088799  13.518    0.00373    0.02278
        241    52 -103.094693 -103.241858    0.147165  13.518    0.00345    0.02689
        242    52 -103.093830 -103.293646    0.199815  13.518    0.00314    0.03111
        243    53 -103.092767 -103.326087    0.233321  13.518    0.00282    0.03438
        244    53 -103.091270 -103.342225    0.250955  13.518    0.00265    0.03624
        245    53 -103.089989 -103.346372    0.256383  13.518    0.00244    0.03657
        246    54 -103.089039 -103.338365    0.249326  13.518    0.00281    0.03521
        247    54 -103.088221 -103.308848    0.220627  13.518    0.00327    0.03195
        248    53 -103.087582 -103.265936    0.178354  13.518    0.00368    0.02764
        249    54 -103.087160 -103.218490    0.131330  13.518    0.00389    0.02295
        250    54 -103.086935 -103.169630    0.082696  13.518    0.00397    0.01826
        251    54 -103.086663 -103.121684    0.035021  13.518    0.00363    0.01499
        252    53 -103.086699 -103.079585    0.007114  13.518    0.00347    0.01342
        253    54 -103.086654 -103.039473    0.047182  13.518    0.00313    0.01588
        254    56 -103.087174 -103.007614    0.079560  13.518    0.00297    0.01786
        255    54 -103.087566 -102.976679    0.110887  13.518    0.00270    0.02078
        256    53 -103.088199 -102.959367    0.128832  13.518    0.00242    0.02237
        257    54 -103.088827 -102.948264    0.140563  13.518    0.00221    0.02393
        258    53 -103.089538 -102.953657    0.135882  13.518    0.00210    0.02360
        259    54 -103.090147 -102.961191    0.128956  13.518    0.00208    0.02163
        260    53 -103.090678 -102.977090    0.113588  13.518    0.00210    0.01961
        261    53 -103.091063 -103.001436    0.089627  13.518    0.00215    0.01606
        262    54 -103.091264 -103.023994    0.067270  13.518    0.00221    0.01304
        263    53 -103.091318 -103.051457    0.039861  13.518    0.00225    0.01092
        264    52 -103.091258 -103.082212    0.009046  13.518    0.00229    0.00963
        265    53 -103.091111 -103.111878    0.020768  13.518    0.00229    0.00957
        266    54 -103.090909 -103.137132    0.046223  13.518    0.00225    0.01090
        267    54 -103.090626 -103.157929    0.067303  13.518    0.00219    0.01275
        268    55 -103.090285 -103.173431    0.083147  13.518    0.00213    0.01442
        269    54 -103.089880 -103.183585    0.093705  13.518    0.00212    0.01564
        270    54 -103.089450 -103.188204    0.098753  13.518    0.00214    0.01627
        271    54 -103.088838 -103.187421    0.098584  13.518    0.00210    0.01641
        272    54 -103.088354 -103.183326    0.094971  13.518    0.00216    0.01579
        273    54 -103.087946 -103.174104    0.086157  13.518    0.00225    0.01452
        274    53 -103.087311 -103.160885    0.073575  13.518    0.00230    0.01332
        275    55 -103.086922 -103.147172    0.060250  13.518    0.00221    0.01168
        276    54 -103.086676 -103.130168    0.043492  13.518    0.00222    0.01218
        277    54 -103.086529 -103.117227    0.030698  13.518    0.00214    0.01006
        278    54 -103.086491 -103.095739    0.009248  13.518    0.00216    0.00857
        279    54 -103.086496 -103.077665    0.008830  13.518    0.00213    0.00785
        280    52 -103.086555 -103.059450    0.027105  13.518    0.00209    0.00791
        281    54 -103.086675 -103.043697    0.042979  13.518    0.00203    0.00877
        282    54 -103.086854 -103.030116    0.056737  13.518    0.00196    0.00982
        283    53 -103.087080 -103.019980    0.067101  13.518    0.00189    0.01070
        284    54 -103.087337 -103.014296    0.073041  13.518    0.00185    0.01124
        285    52 -103.087552 -103.013203    0.074349  13.518    0.00179    0.01182
        286    54 -103.087832 -103.018456    0.069377  13.518    0.00172    0.01134
        287    53 -103.088112 -103.022544    0.065568  13.518    0.00172    0.01075
        288    55 -103.088365 -103.029959    0.058406  13.518    0.00173    0.00999
        289    53 -103.088563 -103.039212    0.049351  13.518    0.00179    0.00888
        290    56 -103.088716 -103.050318    0.038398  13.518    0.00182    0.00766
        291    56 -103.088816 -103.061529    0.027287  13.518    0.00183    0.00657
        292    56 -103.088848 -103.073719    0.015130  13.518    0.00183    0.00593
        293    55 -103.088817 -103.085645    0.003172  13.518    0.00182    0.00587
        294    55 -103.088721 -103.097344    0.008623  13.518    0.00180    0.00630
        295    54 -103.088573 -103.107884    0.019311  13.518    0.00178    0.00699
        296    53 -103.088383 -103.116851    0.028467  13.518    0.00175    0.00770
        297    54 -103.088163 -103.123608    0.035446  13.518    0.00174    0.00826
        298    51 -103.087923 -103.127885    0.039962  13.518    0.00173    0.00856
        299    53 -103.087676 -103.129514    0.041838  13.518    0.00172    0.00877
        300    54 -103.087453 -103.129896    0.042443  13.518    0.00177    0.00874
        301    59 -103.087253 -103.128668    0.041415  13.518    0.00184    0.00832
        302    53 -103.087046 -103.124085    0.037039  13.518    0.00191    0.00778
        303    54 -103.086865 -103.117330    0.030465  13.518    0.00198    0.00703
        304    53 -103.086713 -103.108630    0.021917  13.518    0.00203    0.00616
        305    53 -103.086606 -103.099189    0.012583  13.518    0.00205    0.00553
        306    54 -103.086528 -103.090379    0.003851  13.518    0.00203    0.00479
        307    54 -103.086489 -103.080625    0.005864  13.518    0.00199    0.00456
        308    53 -103.086491 -103.071785    0.014706  13.518    0.00193    0.00474
        309    54 -103.086534 -103.063496    0.023038  13.518    0.00188    0.00515
        310    54 -103.086615 -103.056460    0.030155  13.518    0.00183    0.00562
        311    54 -103.086727 -103.050651    0.036076  13.518    0.00179    0.00606
        312    54 -103.086826 -103.046389    0.040437  13.518    0.00170    0.00644
        313    56 -103.086733 -103.044170    0.042563  13.518    0.00146    0.00710
        314    53 -103.086939 -103.045909    0.041031  13.518    0.00150    0.00698
        315    58 -103.086980 -103.046404    0.040576  13.518    0.00146    0.00683
        316    59 -103.087126 -103.049397    0.037729  13.518    0.00148    0.00647
        317    60 -103.087208 -103.052577    0.034631  13.518    0.00148    0.00598
        318    59 -103.087322 -103.057145    0.030177  13.518    0.00148    0.00582
        319    53 -103.087378 -103.063582    0.023796  13.518    0.00146    0.00534
        320    56 -103.087407 -103.070418    0.016989  13.518    0.00143    0.00558
        321    56 -103.087375 -103.077915    0.009460  13.518    0.00141    0.00543
        322    54 -103.087315 -103.083360    0.003955  13.518    0.00139    0.00541
        323    54 -103.087217 -103.088893    0.001676  13.518    0.00137    0.00538
        324    54 -103.087094 -103.092936    0.005842  13.518    0.00135    0.00529
        325    53 -103.086950 -103.096255    0.009305  13.518    0.00134    0.00517
        326    54 -103.086800 -103.098336    0.011536  13.518    0.00133    0.00503
        327    54 -103.086657 -103.099491    0.012834  13.518    0.00131    0.00491
        328    59 -103.086528 -103.099623    0.013095  13.518    0.00129    0.00482
        329    54 -103.086420 -103.098930    0.012510  13.518    0.00127    0.00504
        330    53 -103.086334 -103.098412    0.012078  13.518    0.00125    0.00500
        331    53 -103.086265 -103.097285    0.011019  13.518    0.00124    0.00538
        332    53 -103.086218 -103.096787    0.010569  13.518    0.00124    0.00517
        333    54 -103.086177 -103.094999    0.008821  13.518    0.00123    0.00495
        334    54 -103.086144 -103.093541    0.007397  13.518    0.00121    0.00577
        335    52 -103.086106 -103.096583    0.010476  13.518    0.00115    0.00624
        336    54 -103.086064 -103.098694    0.012630  13.518    0.00109    0.00721
        337    56 -103.085963 -103.103038    0.017075  13.518    0.00109    0.00633
        338    53 -103.085848 -103.103871    0.018023  13.518    0.00106    0.00586
        339    54 -103.085701 -103.104247    0.018547  13.518    0.00104    0.00579
        340    54 -103.085553 -103.102471    0.016917  13.518    0.00099    0.00768
        341    55 -103.085398 -103.105006    0.019608  13.518    0.00099    0.00759
        342    54 -103.085242 -103.105236    0.019995  13.518    0.00096    0.00778
        343    55 -103.085077 -103.108878    0.023801  13.518    0.00091    0.00724
        344    49 -103.084896 -103.107262    0.022366  13.518    0.00082    0.00704
        345    55 -103.084723 -103.106767    0.022045  13.518    0.00074    0.00692
        346    49 -103.084566 -103.103501    0.018935  13.518    0.00069    0.00654
        347    49 -103.084437 -103.100268    0.015831  13.518    0.00068    0.00579
        348    53 -103.084334 -103.096837    0.012503  13.518    0.00068    0.00479
        349    53 -103.084256 -103.094162    0.009905  13.518    0.00068    0.00391
        350    54 -103.084199 -103.090734    0.006535  13.518    0.00068    0.00330
        351    54 -103.084166 -103.086725    0.002559  13.518    0.00067    0.00298
        352    56 -103.084160 -103.082217    0.001943  13.518    0.00065    0.00300
        353    55 -103.084185 -103.077574    0.006611  13.518    0.00063    0.00321
        354    54 -103.084242 -103.072956    0.011286  13.518    0.00061    0.00344
        355    56 -103.084330 -103.068765    0.015565  13.518    0.00060    0.00365
        356    56 -103.084441 -103.065498    0.018943  13.518    0.00060    0.00379
        357    55 -103.084572 -103.062791    0.021781  13.518    0.00060    0.00389
        358    55 -103.084711 -103.061358    0.023353  13.518    0.00061    0.00393
        359    55 -103.084851 -103.060826    0.024024  13.518    0.00061    0.00389
        360    55 -103.084980 -103.061173    0.023807  13.518    0.00060    0.00381
        361    56 -103.085095 -103.062713    0.022382  13.518    0.00057    0.00431
        362    49 -103.085219 -103.066853    0.018365  13.518    0.00053    0.00403
        363    49 -103.085291 -103.069922    0.015369  13.518    0.00053    0.00352
        364    47 -103.085333 -103.074101    0.011232  13.518    0.00053    0.00307
        365    48 -103.085261 -103.077766    0.007495  13.518    0.00051    0.00306
        366    47 -103.085251 -103.082085    0.003165  13.518    0.00049    0.00278
        367    54 -103.085191 -103.085249    0.000058  13.518    0.00049    0.00267
        368    49 -103.085143 -103.088226    0.003083  13.518    0.00048    0.00259
        369    55 -103.085069 -103.090398    0.005329  13.518    0.00048    0.00252
        370    48 -103.084999 -103.092311    0.007312  13.518    0.00047    0.00247
        371    55 -103.084923 -103.093940    0.009017  13.518    0.00047    0.00246
        372    55 -103.084855 -103.095460    0.010605  13.518    0.00046    0.00248
        373    49 -103.084789 -103.096676    0.011887  13.518    0.00045    0.00251
        374    48 -103.084729 -103.097507    0.012778  13.518    0.00045    0.00256
        375    49 -103.084671 -103.097923    0.013252  13.518    0.00044    0.00262
        376    55 -103.084616 -103.097918    0.013302  13.518    0.00043    0.00268
        377    53 -103.084563 -103.097543    0.012980  13.518    0.00042    0.00272
        378    53 -103.084512 -103.096889    0.012377  13.518    0.00042    0.00271
        379    56 -103.084464 -103.096034    0.011570  13.518    0.00041    0.00264
        380    53 -103.084420 -103.095061    0.010641  13.518    0.00040    0.00253
        381    53 -103.084381 -103.094276    0.009896  13.518    0.00040    0.00237
        382    53 -103.084347 -103.093267    0.008921  13.518    0.00040    0.00218
        383    53 -103.084318 -103.092193    0.007875  13.518    0.00040    0.00195
        384    53 -103.084295 -103.090945    0.006650  13.518    0.00041    0.00169
        385    53 -103.084278 -103.089668    0.005389  13.518    0.00041    0.00139
        386    52 -103.084264 -103.088207    0.003943  13.518    0.00041    0.00112
        387    53 -103.084253 -103.086530    0.002277  13.518    0.00041    0.00092
        388    53 -103.084247 -103.084634    0.000388  13.518    0.00041    0.00087
        389    53 -103.084245 -103.082696    0.001549  13.518    0.00040    0.00095
        390    53 -103.084250 -103.080692    0.003558  13.518    0.00040    0.00110
        391    53 -103.084208 -103.078739    0.005469  13.518    0.00034    0.00156
        392    53 -103.084249 -103.077597    0.006652  13.518    0.00033    0.00155
        393    53 -103.084258 -103.076353    0.007905  13.518    0.00032    0.00167
        394    53 -103.084296 -103.075556    0.008740  13.518    0.00031    0.00176
        395    58 -103.084326 -103.074802    0.009524  13.518    0.00030    0.00182
        396    53 -103.084370 -103.074258    0.010112  13.518    0.00030    0.00185
        397    58 -103.084415 -103.073815    0.010599  13.518    0.00030    0.00185
        398    59 -103.084467 -103.073615    0.010851  13.518    0.00030    0.00183
        399    56 -103.084519 -103.073695    0.010824  13.518    0.00031    0.00178

        ==> Orbital Optimization <==

            Jacobi Optimization converged.
            Total energy change: -1.637622e-03

        400    56 -103.086210 -103.453615    0.367405   2.404    0.00031    0.00173
        401    80 -103.052669 -104.003040    0.950371   2.404    0.03118    0.12412
        402    47 -103.022266 -103.847517    0.825252   2.404    0.03766    0.09522
        403    41 -103.005284 -103.652244    0.646959   2.404    0.04017    0.07260
        404    41 -102.990928 -103.453884    0.462957   2.404    0.03754    0.06188
        405    37 -102.991356 -103.316879    0.325524   2.404    0.03613    0.05606
        406    36 -102.993687 -103.161509    0.167822   2.404    0.03289    0.05365
        407    40 -103.004824 -103.028657    0.023833   2.404    0.03268    0.05169
        408    36 -103.013849 -102.933705    0.080144   2.404    0.02882    0.05307
        409    35 -103.027278 -102.883109    0.144168   2.404    0.02673    0.05458
        410    36 -103.034143 -102.847373    0.186770   2.404    0.02413    0.05269
        411    42 -103.039525 -102.878597    0.160928   2.404    0.02353    0.04779
        412    41 -103.047368 -102.894948    0.152420   2.404    0.02033    0.04563
        413    37 -103.053843 -102.872875    0.180969   2.404    0.01892    0.04101
        414    37 -103.060283 -102.832294    0.227989   2.404    0.01613    0.03893
        415    41 -103.066002 -102.797035    0.268967   2.404    0.01145    0.04293
        416    37 -103.074698 -102.776081    0.298617   2.404    0.00781    0.04500
        417    37 -103.083400 -102.762606    0.320794   2.404    0.00584    0.04555
        418    41 -103.090683 -102.768162    0.322522   2.404    0.00625    0.04271
        419    42 -103.096347 -102.788753    0.307594   2.404    0.00856    0.03891
        420    42 -103.104337 -102.833140    0.271197   2.404    0.00959    0.03564
        421    40 -103.109569 -102.872619    0.236949   2.404    0.01186    0.02942
        422    41 -103.112196 -102.926849    0.185347   2.404    0.01425    0.02285
        423    41 -103.113898 -102.988458    0.125440   2.404    0.01615    0.01627
        424    40 -103.114475 -103.051962    0.062513   2.404    0.01680    0.00961
        425    42 -103.113907 -103.111051    0.002856   2.404    0.01576    0.00780
        426    47 -103.109917 -103.163642    0.053725   2.404    0.01485    0.01282
        427    41 -103.107192 -103.210772    0.103579   2.404    0.01186    0.01751
        428    41 -103.102724 -103.244149    0.141424   2.404    0.00916    0.02190
        429    41 -103.099425 -103.268406    0.168981   2.404    0.00548    0.02452
        430    37 -103.095686 -103.279134    0.183448   2.404    0.00398    0.02546
        431    40 -103.092275 -103.274994    0.182720   2.404    0.00611    0.02477
        432    40 -103.088866 -103.257567    0.168701   2.404    0.00879    0.02261
        433    41 -103.085453 -103.230578    0.145125   2.404    0.01035    0.01973
        434    42 -103.083615 -103.200690    0.117075   2.404    0.01195    0.01620
        435    41 -103.082240 -103.164265    0.082025   2.404    0.01253    0.01256
        436    39 -103.081622 -103.128953    0.047331   2.404    0.01246    0.00922
        437    42 -103.080943 -103.096856    0.015912   2.404    0.01149    0.00711
        438    42 -103.080249 -103.070959    0.009290   2.404    0.00970    0.00693
        439    41 -103.080377 -103.045094    0.035283   2.404    0.00799    0.00836
        440    41 -103.081525 -103.021878    0.059647   2.404    0.00655    0.01067
        441    42 -103.082496 -103.004219    0.078277   2.404    0.00478    0.01269
        442    45 -103.085169 -102.995992    0.089177   2.404    0.00316    0.01372
        443    42 -103.087402 -102.991477    0.095925   2.404    0.00264    0.01393
        444    42 -103.090499 -102.993975    0.096524   2.404    0.00270    0.01320
        445    38 -103.092861 -102.997341    0.095520   2.404    0.00303    0.01222
        446    38 -103.095134 -103.006552    0.088583   2.404    0.00348    0.01096
        447    42 -103.095308 -103.015362    0.079946   2.404    0.00423    0.00998
        448    40 -103.096607 -103.031438    0.065170   2.404    0.00407    0.00805
        449    42 -103.096668 -103.045563    0.051105   2.404    0.00493    0.00588
        450    41 -103.097430 -103.064878    0.032553   2.404    0.00468    0.00405
        451    42 -103.097422 -103.081962    0.015460   2.404    0.00475    0.00279
        452    42 -103.097015 -103.099373    0.002358   2.404    0.00440    0.00316
        453    42 -103.096291 -103.114712    0.018420   2.404    0.00416    0.00418
        454    41 -103.095024 -103.125692    0.030668   2.404    0.00345    0.00545
        455    41 -103.094009 -103.133559    0.039550   2.404    0.00300    0.00636
        456    36 -103.092727 -103.137770    0.045043   2.404    0.00249    0.00708
        457    35 -103.090995 -103.140346    0.049351   2.404    0.00192    0.00759
        458    37 -103.089928 -103.141850    0.051922   2.404    0.00174    0.00783
        459    41 -103.088512 -103.142772    0.054260   2.404    0.00199    0.00750
        460    42 -103.086991 -103.139777    0.052786   2.404    0.00195    0.00712
        461    46 -103.085466 -103.135947    0.050481   2.404    0.00180    0.00657
        462    46 -103.084681 -103.129605    0.044925   2.404    0.00218    0.00570
        463    47 -103.083851 -103.121344    0.037493   2.404    0.00242    0.00479
        464    41 -103.083352 -103.112454    0.029102   2.404    0.00259    0.00403
        465    41 -103.082973 -103.104452    0.021479   2.404    0.00264    0.00317
        466    42 -103.082864 -103.094481    0.011617   2.404    0.00266    0.00258
        467    41 -103.082918 -103.085366    0.002448   2.404    0.00261    0.00254
        468    41 -103.083199 -103.077135    0.006064   2.404    0.00250    0.00277
        469    40 -103.083666 -103.070540    0.013126   2.404    0.00241    0.00331
        470    38 -103.084293 -103.066282    0.018011   2.404    0.00233    0.00339
        471    41 -103.084996 -103.061596    0.023399   2.404    0.00219    0.00360
        472    37 -103.085548 -103.058353    0.027195   2.404    0.00160    0.00414
        473    37 -103.086251 -103.057209    0.029043   2.404    0.00129    0.00440
        474    38 -103.087027 -103.057162    0.029865   2.404    0.00107    0.00448
        475    38 -103.087648 -103.058315    0.029333   2.404    0.00102    0.00433
        476    38 -103.088244 -103.060447    0.027797   2.404    0.00110    0.00395
        477    38 -103.088712 -103.063145    0.025566   2.404    0.00124    0.00345
        478    38 -103.089117 -103.066329    0.022788   2.404    0.00131    0.00308
        479    37 -103.089400 -103.070644    0.018756   2.404    0.00133    0.00268
        480    37 -103.089577 -103.074039    0.015537   2.404    0.00139    0.00237
        481    42 -103.089684 -103.077729    0.011955   2.404    0.00146    0.00205
        482    42 -103.089730 -103.081006    0.008723   2.404    0.00154    0.00171
        483    42 -103.089658 -103.084411    0.005247   2.404    0.00155    0.00144
        484    38 -103.089517 -103.088267    0.001250   2.404    0.00155    0.00181
        485    36 -103.089305 -103.092759    0.003455   2.404    0.00150    0.00168
        486    40 -103.089005 -103.096222    0.007217   2.404    0.00140    0.00163
        487    40 -103.088687 -103.099112    0.010425   2.404    0.00125    0.00178
        488    37 -103.088339 -103.101249    0.012910   2.404    0.00111    0.00199
        489    38 -103.087981 -103.102834    0.014853   2.404    0.00101    0.00213
        490    38 -103.087606 -103.103442    0.015836   2.404    0.00095    0.00223
        491    38 -103.087223 -103.103372    0.016149   2.404    0.00090    0.00228
        492    38 -103.086850 -103.102706    0.015856   2.404    0.00084    0.00229
        493    38 -103.086507 -103.101669    0.015162   2.404    0.00077    0.00231
        494    39 -103.086206 -103.100717    0.014511   2.404    0.00074    0.00228
        495    41 -103.085952 -103.099267    0.013315   2.404    0.00073    0.00221
        496    42 -103.085748 -103.097896    0.012148   2.404    0.00076    0.00209
        497    42 -103.085592 -103.096336    0.010744   2.404    0.00082    0.00193
        498    41 -103.085463 -103.094782    0.009319   2.404    0.00089    0.00171
        499    41 -103.085358 -103.093163    0.007804   2.404    0.00096    0.00143
        500    40 -103.085276 -103.091697    0.006421   2.404    0.00102    0.00110
        501    41 -103.085198 -103.090227    0.005029   2.404    0.00106    0.00074
        502    47 -103.085093 -103.088659    0.003566   2.404    0.00099    0.00054
        503    47 -103.085096 -103.087075    0.001978   2.404    0.00096    0.00057
        504    47 -103.085170 -103.085307    0.000137   2.404    0.00092    0.00079
        505    41 -103.085172 -103.083431    0.001741   2.404    0.00076    0.00108
        506    40 -103.085282 -103.082089    0.003194   2.404    0.00063    0.00136
        507    41 -103.085468 -103.081004    0.004464   2.404    0.00061    0.00141
        508    37 -103.085640 -103.079612    0.006029   2.404    0.00063    0.00135
        509    37 -103.085844 -103.078602    0.007242   2.404    0.00064    0.00131
        510    33 -103.085876 -103.077716    0.008160   2.404    0.00049    0.00141
        511    42 -103.086138 -103.077537    0.008601   2.404    0.00045    0.00137
        512    38 -103.086306 -103.076996    0.009310   2.404    0.00043    0.00135
        513    42 -103.086557 -103.076975    0.009582   2.404    0.00044    0.00131
        514    42 -103.086757 -103.077040    0.009717   2.404    0.00049    0.00123
        515    42 -103.086971 -103.077637    0.009333   2.404    0.00055    0.00112
        516    41 -103.087153 -103.078550    0.008603   2.404    0.00061    0.00100
        517    41 -103.087323 -103.079843    0.007479   2.404    0.00065    0.00085
        518    41 -103.087454 -103.081325    0.006130   2.404    0.00067    0.00070
        519    41 -103.087546 -103.082926    0.004620   2.404    0.00068    0.00055
        520    41 -103.087586 -103.084509    0.003077   2.404    0.00066    0.00042
        521    42 -103.087578 -103.086031    0.001546   2.404    0.00064    0.00042
        522    42 -103.087521 -103.087527    0.000006   2.404    0.00061    0.00044
        523    42 -103.087418 -103.088654    0.001236   2.404    0.00058    0.00052
        524    41 -103.087289 -103.089689    0.002400   2.404    0.00054    0.00061
        525    39 -103.087140 -103.090459    0.003319   2.404    0.00051    0.00069
        526    39 -103.086990 -103.091048    0.004058   2.404    0.00047    0.00077
        527    42 -103.086822 -103.091415    0.004594   2.404    0.00043    0.00083
        528    42 -103.086670 -103.091649    0.004980   2.404    0.00040    0.00088
        529    42 -103.086529 -103.091676    0.005147   2.404    0.00039    0.00091
        530    42 -103.086400 -103.091538    0.005138   2.404    0.00038    0.00092
        531    42 -103.086286 -103.091262    0.004976   2.404    0.00038    0.00092
        532    42 -103.086187 -103.090890    0.004703   2.404    0.00039    0.00089
        533    42 -103.086105 -103.090458    0.004353   2.404    0.00040    0.00085
        534    47 -103.086037 -103.089999    0.003962   2.404    0.00041    0.00080
        535    42 -103.085981 -103.089542    0.003561   2.404    0.00042    0.00073
        536    42 -103.085936 -103.089088    0.003152   2.404    0.00044    0.00066
        537    42 -103.085899 -103.088650    0.002750   2.404    0.00046    0.00057
        538    42 -103.085866 -103.088213    0.002347   2.404    0.00047    0.00048
        539    42 -103.085780 -103.087782    0.002002   2.404    0.00050    0.00046
        540    42 -103.085785 -103.087490    0.001705   2.404    0.00048    0.00039
        541    42 -103.085743 -103.086961    0.001218   2.404    0.00051    0.00035
        542    42 -103.085744 -103.086482    0.000739   2.404    0.00050    0.00034
        543    42 -103.085736 -103.085897    0.000161   2.404    0.00050    0.00034
        544    42 -103.085756 -103.085294    0.000461   2.404    0.00048    0.00037
        545    42 -103.085785 -103.084651    0.001134   2.404    0.00046    0.00042
        546    41 -103.085837 -103.084034    0.001804   2.404    0.00042    0.00047
        547    42 -103.085903 -103.083455    0.002448   2.404    0.00039    0.00052
        548    41 -103.085988 -103.082948    0.003040   2.404    0.00036    0.00056
        549    42 -103.086084 -103.082541    0.003542   2.404    0.00033    0.00059
        550    42 -103.086190 -103.082252    0.003938   2.404    0.00032    0.00060
        551    42 -103.086298 -103.082159    0.004139   2.404    0.00032    0.00061
        552    42 -103.086403 -103.082192    0.004211   2.404    0.00032    0.00060
        553    41 -103.086498 -103.082297    0.004201   2.404    0.00033    0.00058
        554    41 -103.086586 -103.082546    0.004040   2.404    0.00034    0.00055
        555    42 -103.086663 -103.082883    0.003780   2.404    0.00036    0.00050
        556    42 -103.086729 -103.083315    0.003415   2.404    0.00037    0.00044
        557    42 -103.086781 -103.083810    0.002972   2.404    0.00038    0.00038
        558    42 -103.086818 -103.084357    0.002461   2.404    0.00039    0.00031
        559    42 -103.086839 -103.084931    0.001907   2.404    0.00039    0.00024
        560    43 -103.086843 -103.085513    0.001330   2.404    0.00039    0.00018
        561    47 -103.086834 -103.086081    0.000753   2.404    0.00039    0.00014
        562    49 -103.086812 -103.086612    0.000200   2.404    0.00038    0.00015
        563    47 -103.086781 -103.087098    0.000316   2.404    0.00037    0.00018
        564    47 -103.086742 -103.087525    0.000783   2.404    0.00036    0.00023
        565    47 -103.086696 -103.087891    0.001195   2.404    0.00035    0.00028
        566    47 -103.086645 -103.088193    0.001548   2.404    0.00034    0.00032
        567    42 -103.086592 -103.088427    0.001835   2.404    0.00033    0.00036
        568    42 -103.086534 -103.088610    0.002076   2.404    0.00032    0.00039
        569    42 -103.086476 -103.088726    0.002250   2.404    0.00031    0.00041
        570    46 -103.086416 -103.088793    0.002377   2.404    0.00031    0.00042
        571    42 -103.086357 -103.088795    0.002438   2.404    0.00030    0.00043
        572    42 -103.086298 -103.088754    0.002456   2.404    0.00031    0.00043
        573    42 -103.086242 -103.088658    0.002416   2.404    0.00031    0.00041
        574    42 -103.086190 -103.088519    0.002330   2.404    0.00032    0.00039
        575    42 -103.086142 -103.088338    0.002195   2.404    0.00032    0.00036
        576    42 -103.086100 -103.088119    0.002019   2.404    0.00033    0.00032
        577    42 -103.086064 -103.087868    0.001805   2.404    0.00034    0.00028
        578    42 -103.086034 -103.087589    0.001555   2.404    0.00034    0.00023
        579    47 -103.086012 -103.087286    0.001274   2.404    0.00034    0.00019
        580    47 -103.085997 -103.086966    0.000968   2.404    0.00034    0.00014
        581    47 -103.085990 -103.086631    0.000641   2.404    0.00034    0.00011
        582    51 -103.085991 -103.086289    0.000298   2.404    0.00033    0.00010
        583    53 -103.086001 -103.085947    0.000054   2.404    0.00033    0.00012
        584    51 -103.086017 -103.085613    0.000404   2.404    0.00032    0.00016
        585    48 -103.086043 -103.085293    0.000750   2.404    0.00031    0.00019
        586    47 -103.086074 -103.084999    0.001075   2.404    0.00030    0.00023
        587    47 -103.086112 -103.084736    0.001376   2.404    0.00030    0.00025
        588    42 -103.086155 -103.084513    0.001642   2.404    0.00029    0.00028
        589    42 -103.086202 -103.084336    0.001866   2.404    0.00029    0.00030
        590    42 -103.086252 -103.084211    0.002040   2.404    0.00029    0.00031
        591    42 -103.086303 -103.084141    0.002162   2.404    0.00029    0.00031
        592    42 -103.086354 -103.084127    0.002227   2.404    0.00029    0.00031
        593    42 -103.086403 -103.084169    0.002234   2.404    0.00029    0.00030
        594    42 -103.086449 -103.084265    0.002183   2.404    0.00029    0.00028
        595    42 -103.086490 -103.084411    0.002079   2.404    0.00030    0.00026
        596    42 -103.086527 -103.084602    0.001924   2.404    0.00030    0.00024
        597    47 -103.086556 -103.084834    0.001722   2.404    0.00031    0.00021
        598    47 -103.086579 -103.085088    0.001492   2.404    0.00031    0.00018
        599    47 -103.086595 -103.085368    0.001227   2.404    0.00031    0.00014

        ==> Orbital Optimization <==

            Jacobi Optimization converged.
            Total energy change: -6.807332e-05

        600    46 -103.086671 -103.320854    0.234183   6.499    0.00031    0.00012
        601    79 -103.084074 -103.317257    0.233183   6.499    0.00524    0.03970
        602    54 -103.081636 -103.262513    0.180877   6.499    0.00630    0.02731
        603    53 -103.079765 -103.203313    0.123547   6.499    0.00540    0.02239
        604    46 -103.078722 -103.150840    0.072118   6.499    0.00443    0.01905
        605    41 -103.078519 -103.113346    0.034827   6.499    0.00416    0.01550
        606    41 -103.078919 -103.086275    0.007356   6.499    0.00397    0.01346
        607    41 -103.079758 -103.066294    0.013464   6.499    0.00351    0.01450
        608    38 -103.080835 -103.049457    0.031378   6.499    0.00306    0.01644
        609    37 -103.081786 -103.034839    0.046947   6.499    0.00289    0.01702
        610    47 -103.082531 -103.027474    0.055057   6.499    0.00268    0.01668
        611    47 -103.083417 -103.026644    0.056774   6.499    0.00240    0.01666
        612    42 -103.084404 -103.025608    0.058796   6.499    0.00205    0.01664
        613    47 -103.085434 -103.024472    0.060962   6.499    0.00187    0.01594
        614    47 -103.086378 -103.023897    0.062480   6.499    0.00200    0.01435
        615    42 -103.087099 -103.025889    0.061210   6.499    0.00219    0.01200
        616    47 -103.087359 -103.029919    0.057440   6.499    0.00247    0.01018
        617    42 -103.087946 -103.038013    0.049933   6.499    0.00219    0.00941
        618    47 -103.088266 -103.045074    0.043192   6.499    0.00201    0.00939
        619    42 -103.088545 -103.052994    0.035550   6.499    0.00166    0.01024
        620    42 -103.088638 -103.060212    0.028426   6.499    0.00151    0.01049
        621    47 -103.088720 -103.064511    0.024209   6.499    0.00147    0.01017
        622    47 -103.088676 -103.069332    0.019344   6.499    0.00143    0.00943
        623    49 -103.088570 -103.072385    0.016185   6.499    0.00140    0.00841
        624    49 -103.088116 -103.076061    0.012055   6.499    0.00129    0.00734
        625    53 -103.088106 -103.080872    0.007234   6.499    0.00134    0.00600
        626    49 -103.087905 -103.085467    0.002438   6.499    0.00135    0.00488
        627    47 -103.087910 -103.091586    0.003676   6.499    0.00123    0.00428
        628    42 -103.087789 -103.096403    0.008614   6.499    0.00116    0.00452
        629    47 -103.087725 -103.102542    0.014817   6.499    0.00109    0.00425
        630    43 -103.087603 -103.104398    0.016795   6.499    0.00102    0.00449
        631    47 -103.087492 -103.106989    0.019497   6.499    0.00094    0.00501
        632    47 -103.087351 -103.107957    0.020606   6.499    0.00085    0.00548
        633    47 -103.087211 -103.109332    0.022122   6.499    0.00073    0.00581
        634    48 -103.087084 -103.111026    0.023943   6.499    0.00062    0.00582
        635    47 -103.086929 -103.112369    0.025440   6.499    0.00052    0.00567
        636    48 -103.086755 -103.113698    0.026943   6.499    0.00048    0.00541
        637    47 -103.086552 -103.114552    0.027999   6.499    0.00049    0.00510
        638    47 -103.086332 -103.114924    0.028592   6.499    0.00056    0.00478
        639    42 -103.086099 -103.114499    0.028400   6.499    0.00064    0.00446
        640    42 -103.085870 -103.113290    0.027420   6.499    0.00072    0.00414
        641    43 -103.085651 -103.111285    0.025634   6.499    0.00079    0.00382
        642    42 -103.085451 -103.108563    0.023111   6.499    0.00083    0.00350
        643    42 -103.085276 -103.105200    0.019925   6.499    0.00085    0.00313
        644    42 -103.085133 -103.101540    0.016408   6.499    0.00084    0.00270
        645    42 -103.085023 -103.097330    0.012307   6.499    0.00081    0.00228
        646    48 -103.084939 -103.092630    0.007691   6.499    0.00078    0.00193
        647    47 -103.084911 -103.087736    0.002824   6.499    0.00073    0.00171
        648    47 -103.084927 -103.082753    0.002174   6.499    0.00068    0.00167
        649    47 -103.085000 -103.077931    0.007069   6.499    0.00062    0.00185
        650    48 -103.085122 -103.073419    0.011703   6.499    0.00057    0.00218
        651    47 -103.085291 -103.069418    0.015873   6.499    0.00051    0.00254
        652    47 -103.085495 -103.066077    0.019418   6.499    0.00045    0.00288
        653    47 -103.085729 -103.063527    0.022202   6.499    0.00040    0.00314
        654    48 -103.085977 -103.061846    0.024131   6.499    0.00037    0.00330
        655    47 -103.086232 -103.061075    0.025157   6.499    0.00036    0.00336
        656    47 -103.086480 -103.061213    0.025268   6.499    0.00036    0.00332
        657    49 -103.086714 -103.062216    0.024498   6.499    0.00038    0.00320
        658    49 -103.086923 -103.064008    0.022914   6.499    0.00041    0.00305
        659    48 -103.087097 -103.066810    0.020286   6.499    0.00043    0.00281
        660    49 -103.087229 -103.069787    0.017442   6.499    0.00045    0.00258
        661    47 -103.087321 -103.073071    0.014251   6.499    0.00046    0.00234
        662    49 -103.087376 -103.076488    0.010888   6.499    0.00047    0.00213
        663    47 -103.087395 -103.079909    0.007486   6.499    0.00046    0.00194
        664    47 -103.087382 -103.083169    0.004214   6.499    0.00045    0.00178
        665    47 -103.087341 -103.086165    0.001176   6.499    0.00044    0.00165
        666    47 -103.087277 -103.088818    0.001542   6.499    0.00043    0.00155
        667    46 -103.087194 -103.091093    0.003899   6.499    0.00043    0.00150
        668    47 -103.087099 -103.092971    0.005872   6.499    0.00042    0.00148
        669    47 -103.086997 -103.094459    0.007462   6.499    0.00042    0.00151
        670    47 -103.086892 -103.095581    0.008689   6.499    0.00042    0.00156
        671    49 -103.086789 -103.096373    0.009584   6.499    0.00042    0.00163
        672    49 -103.086690 -103.096879    0.010189   6.499    0.00041    0.00170
        673    49 -103.086595 -103.097139    0.010543   6.499    0.00040    0.00177
        674    49 -103.086508 -103.097191    0.010683   6.499    0.00039    0.00182
        675    48 -103.086427 -103.097061    0.010634   6.499    0.00038    0.00187
        676    49 -103.086354 -103.096769    0.010415   6.499    0.00036    0.00191
        677    48 -103.086288 -103.096325    0.010037   6.499    0.00034    0.00195
        678    47 -103.086231 -103.095738    0.009507   6.499    0.00033    0.00197
        679    47 -103.086182 -103.095016    0.008834   6.499    0.00032    0.00197
        680    47 -103.086141 -103.094169    0.008027   6.499    0.00033    0.00195
        681    49 -103.086110 -103.093214    0.007104   6.499    0.00034    0.00189
        682    49 -103.086086 -103.092168    0.006082   6.499    0.00035    0.00179
        683    52 -103.086071 -103.091058    0.004987   6.499    0.00037    0.00167
        684    48 -103.086063 -103.089918    0.003854   6.499    0.00038    0.00152
        685    48 -103.086064 -103.088770    0.002706   6.499    0.00039    0.00135
        686    49 -103.086070 -103.087653    0.001583   6.499    0.00040    0.00118
        687    47 -103.086082 -103.086588    0.000505   6.499    0.00040    0.00101
        688    47 -103.086098 -103.085632    0.000466   6.499    0.00040    0.00086
        689    49 -103.086115 -103.084812    0.001303   6.499    0.00038    0.00075
        690    53 -103.086134 -103.084073    0.002061   6.499    0.00036    0.00073
        691    53 -103.086155 -103.083411    0.002744   6.499    0.00034    0.00080
        692    53 -103.086178 -103.082822    0.003357   6.499    0.00032    0.00090
        693    52 -103.086204 -103.082308    0.003896   6.499    0.00029    0.00101
        694    51 -103.086232 -103.081872    0.004360   6.499    0.00027    0.00111
        695    53 -103.086263 -103.081511    0.004752   6.499    0.00025    0.00120
        696    47 -103.086296 -103.081218    0.005078   6.499    0.00023    0.00126
        697    53 -103.086331 -103.080988    0.005342   6.499    0.00022    0.00129
        698    52 -103.086368 -103.080816    0.005552   6.499    0.00021    0.00130
        699    52 -103.086406 -103.080700    0.005706   6.499    0.00021    0.00128
        700    52 -103.086447 -103.080641    0.005805   6.499    0.00021    0.00127
        701    52 -103.086484 -103.080786    0.005698   6.499    0.00021    0.00122
        702    52 -103.086521 -103.080944    0.005577   6.499    0.00022    0.00119
        703    48 -103.086559 -103.081183    0.005376   6.499    0.00022    0.00114
        704    48 -103.086595 -103.081525    0.005070   6.499    0.00022    0.00106
        705    48 -103.086630 -103.081980    0.004649   6.499    0.00023    0.00097
        706    48 -103.086660 -103.082558    0.004102   6.499    0.00023    0.00086
        707    52 -103.086686 -103.083251    0.003435   6.499    0.00023    0.00075
        708    48 -103.086707 -103.084036    0.002671   6.499    0.00023    0.00063
        709    48 -103.086720 -103.084900    0.001819   6.499    0.00023    0.00053
        710    48 -103.086725 -103.085802    0.000923   6.499    0.00024    0.00044
        711    48 -103.086721 -103.086712    0.000009   6.499    0.00024    0.00039
        712    48 -103.086709 -103.087589    0.000880   6.499    0.00024    0.00038
        713    48 -103.086689 -103.088403    0.001714   6.499    0.00024    0.00042
        714    48 -103.086662 -103.089125    0.002463   6.499    0.00023    0.00049
        715    49 -103.086630 -103.089737    0.003107   6.499    0.00023    0.00058
        716    48 -103.086593 -103.090224    0.003631   6.499    0.00022    0.00067
        717    48 -103.086554 -103.090581    0.004026   6.499    0.00022    0.00074
        718    49 -103.086514 -103.090805    0.004291   6.499    0.00021    0.00080
        719    48 -103.086475 -103.090902    0.004428   6.499    0.00021    0.00085
        720    52 -103.086437 -103.090878    0.004441   6.499    0.00020    0.00087
        721    52 -103.086401 -103.090742    0.004341   6.499    0.00020    0.00088
        722    53 -103.086369 -103.090507    0.004138   6.499    0.00020    0.00088
        723    52 -103.086341 -103.090187    0.003846   6.499    0.00020    0.00085
        724    53 -103.086317 -103.089796    0.003479   6.499    0.00020    0.00082
        725    53 -103.086297 -103.089350    0.003053   6.499    0.00020    0.00077
        726    53 -103.086282 -103.088864    0.002582   6.499    0.00020    0.00070
        727    52 -103.086272 -103.088354    0.002082   6.499    0.00020    0.00063
        728    52 -103.086265 -103.087833    0.001568   6.499    0.00021    0.00055
        729    53 -103.086263 -103.087316    0.001052   6.499    0.00021    0.00046
        730    53 -103.086265 -103.086812    0.000548   6.499    0.00021    0.00037
        731    52 -103.086269 -103.086334    0.000064   6.499    0.00021    0.00029
        732    52 -103.086277 -103.085886    0.000391   6.499    0.00021    0.00024
        733    52 -103.086288 -103.085478    0.000810   6.499    0.00021    0.00023
        734    52 -103.086300 -103.085112    0.001188   6.499    0.00021    0.00026
        735    52 -103.086313 -103.084791    0.001523   6.499    0.00020    0.00032
        736    52 -103.086329 -103.084515    0.001814   6.499    0.00020    0.00040
        737    52 -103.086345 -103.084286    0.002058   6.499    0.00019    0.00046
        738    52 -103.086360 -103.084105    0.002256   6.499    0.00019    0.00053
        739    52 -103.086377 -103.083966    0.002411   6.499    0.00018    0.00058
        740    52 -103.086394 -103.083875    0.002519   6.499    0.00018    0.00062
        741    52 -103.086410 -103.083824    0.002586   6.499    0.00017    0.00065
        742    52 -103.086426 -103.083816    0.002610   6.499    0.00017    0.00067
        743    59 -103.086442 -103.083848    0.002594   6.499    0.00017    0.00067
        744    59 -103.086457 -103.083918    0.002539   6.499    0.00017    0.00065
        745    59 -103.086471 -103.084024    0.002447   6.499    0.00017    0.00063
        746    52 -103.086484 -103.084164    0.002320   6.499    0.00018    0.00059
        747    52 -103.086496 -103.084336    0.002160   6.499    0.00018    0.00054
        748    55 -103.086507 -103.084535    0.001972   6.499    0.00019    0.00048
        749    52 -103.086516 -103.084757    0.001760   6.499    0.00019    0.00042
        750    55 -103.086524 -103.085000    0.001524   6.499    0.00019    0.00035
        751    49 -103.086531 -103.085255    0.001276   6.499    0.00019    0.00028
        752    52 -103.086535 -103.085528    0.001007   6.499    0.00019    0.00021
        753    49 -103.086538 -103.085800    0.000739   6.499    0.00019    0.00017
        754    52 -103.086539 -103.086082    0.000457   6.499    0.00019    0.00016
        755    55 -103.086539 -103.086355    0.000184   6.499    0.00019    0.00019
        756    48 -103.086537 -103.086625    0.000088   6.499    0.00019    0.00023
        757    52 -103.086533 -103.086888    0.000355   6.499    0.00018    0.00029
        758    55 -103.086527 -103.087134    0.000607   6.499    0.00018    0.00034
        759    55 -103.086519 -103.087365    0.000846   6.499    0.00018    0.00038
        760    55 -103.086510 -103.087575    0.001065   6.499    0.00017    0.00042
        761    54 -103.086500 -103.087762    0.001262   6.499    0.00017    0.00045
        762    55 -103.086488 -103.087921    0.001433   6.499    0.00017    0.00047
        763    55 -103.086475 -103.088050    0.001575   6.499    0.00017    0.00048
        764    55 -103.086461 -103.088145    0.001684   6.499    0.00017    0.00048
        765    55 -103.086446 -103.088203    0.001757   6.499    0.00016    0.00047
        766    59 -103.086432 -103.088222    0.001790   6.499    0.00016    0.00045
        767    59 -103.086417 -103.088200    0.001783   6.499    0.00017    0.00042
        768    59 -103.086402 -103.088137    0.001734   6.499    0.00017    0.00039
        769    52 -103.086389 -103.088033    0.001644   6.499    0.00017    0.00035
        770    59 -103.086376 -103.087889    0.001513   6.499    0.00017    0.00030
        771    59 -103.086365 -103.087709    0.001345   6.499    0.00017    0.00026
        772    52 -103.086355 -103.087498    0.001143   6.499    0.00017    0.00021
        773    53 -103.086347 -103.087258    0.000911   6.499    0.00017    0.00018
        774    53 -103.086342 -103.086999    0.000658   6.499    0.00017    0.00015
        775    58 -103.086338 -103.086725    0.000387   6.499    0.00017    0.00015
        776    52 -103.086337 -103.086447    0.000110   6.499    0.00017    0.00016
        777    59 -103.086338 -103.086167    0.000171   6.499    0.00017    0.00019
        778    55 -103.086341 -103.085897    0.000444   6.499    0.00017    0.00023
        779    52 -103.086347 -103.085641    0.000706   6.499    0.00017    0.00026
        780    52 -103.086354 -103.085407    0.000947   6.499    0.00017    0.00029
        781    53 -103.086363 -103.085198    0.001165   6.499    0.00017    0.00031
        782    59 -103.086373 -103.085019    0.001354   6.499    0.00016    0.00033
        783    53 -103.086384 -103.084874    0.001510   6.499    0.00016    0.00035
        784    59 -103.086396 -103.084765    0.001631   6.499    0.00016    0.00036
        785    59 -103.086408 -103.084691    0.001717   6.499    0.00016    0.00036
        786    59 -103.086421 -103.084655    0.001765   6.499    0.00016    0.00035
        787    59 -103.086433 -103.084654    0.001779   6.499    0.00016    0.00034
        788    55 -103.086445 -103.084689    0.001756   6.499    0.00016    0.00032
        789    59 -103.086456 -103.084756    0.001700   6.499    0.00016    0.00030
        790    55 -103.086466 -103.084853    0.001613   6.499    0.00016    0.00027
        791    54 -103.086475 -103.084978    0.001498   6.499    0.00016    0.00025
[...]
        853    35 -109.095057 -109.095507    0.000450   1.040    0.00056    0.00025
        854    37 -109.095033 -109.095634    0.000601   1.040    0.00052    0.00027
        855    35 -109.095008 -109.095730    0.000722   1.040    0.00046    0.00029
        856    35 -109.094969 -109.095808    0.000840   1.040    0.00038    0.00031
        857    34 -109.094927 -109.095852    0.000925   1.040    0.00030    0.00033
        858    34 -109.094883 -109.095872    0.000989   1.040    0.00023    0.00033
        859    32 -109.094838 -109.095857    0.001019   1.040    0.00019    0.00032
        860    32 -109.094794 -109.095814    0.001021   1.040    0.00019    0.00031
        861    32 -109.094753 -109.095738    0.000986   1.040    0.00022    0.00028
        862    32 -109.094718 -109.095633    0.000915   1.040    0.00026    0.00025
        863    32 -109.094689 -109.095502    0.000813   1.040    0.00030    0.00022
        864    34 -109.094668 -109.095349    0.000681   1.040    0.00033    0.00018
        865    33 -109.094657 -109.095184    0.000527   1.040    0.00034    0.00015
        866    37 -109.094653 -109.095009    0.000356   1.040    0.00034    0.00013
        867    38 -109.094657 -109.094838    0.000181   1.040    0.00034    0.00013
        868    38 -109.094669 -109.094672    0.000003   1.040    0.00032    0.00014
        869    38 -109.094687 -109.094522    0.000165   1.040    0.00029    0.00016
        870    38 -109.094711 -109.094391    0.000320   1.040    0.00026    0.00018
        871    38 -109.094739 -109.094285    0.000454   1.040    0.00023    0.00020
        872    38 -109.094769 -109.094205    0.000563   1.040    0.00021    0.00021
        873    38 -109.094799 -109.094152    0.000647   1.040    0.00020    0.00022
        874    35 -109.094829 -109.094124    0.000704   1.040    0.00021    0.00021
        875    35 -109.094857 -109.094123    0.000734   1.040    0.00024    0.00021
        876    35 -109.094881 -109.094141    0.000740   1.040    0.00027    0.00019
        877    32 -109.094901 -109.094176    0.000725   1.040    0.00030    0.00018
        878    32 -109.094918 -109.094224    0.000694   1.040    0.00032    0.00016
        879    33 -109.094929 -109.094280    0.000649   1.040    0.00034    0.00014
        880    33 -109.094936 -109.094343    0.000592   1.040    0.00035    0.00012
        881    35 -109.094939 -109.094411    0.000528   1.040    0.00035    0.00011
        882    34 -109.094938 -109.094473    0.000466   1.040    0.00034    0.00011
        883    35 -109.094935 -109.094534    0.000401   1.040    0.00032    0.00012
        884    31 -109.094930 -109.094590    0.000340   1.040    0.00029    0.00012
        885    34 -109.094923 -109.094646    0.000277   1.040    0.00025    0.00013
        886    32 -109.094915 -109.094697    0.000217   1.040    0.00022    0.00014
        887    30 -109.094907 -109.094748    0.000160   1.040    0.00019    0.00015
        888    30 -109.094898 -109.094795    0.000103   1.040    0.00016    0.00015
        889    31 -109.094889 -109.094840    0.000049   1.040    0.00014    0.00015
        890    32 -109.094881 -109.094881    0.000000   1.040    0.00013    0.00014
        891    32 -109.094872 -109.094919    0.000047   1.040    0.00014    0.00013
        892    33 -109.094863 -109.094953    0.000089   1.040    0.00015    0.00012
        893    34 -109.094853 -109.094981    0.000128   1.040    0.00016    0.00011
        894    35 -109.094845 -109.095003    0.000158   1.040    0.00017    0.00010
        895    35 -109.094835 -109.095019    0.000184   1.040    0.00018    0.00009
        896    35 -109.094827 -109.095028    0.000201   1.040    0.00018    0.00009
        897    34 -109.094819 -109.095030    0.000211   1.040    0.00018    0.00009
        898    35 -109.094812 -109.095024    0.000212   1.040    0.00017    0.00010
        899    35 -109.094807 -109.095011    0.000204   1.040    0.00017    0.00010
        900    35 -109.094802 -109.094991    0.000189   1.040    0.00016    0.00010
        901    35 -109.094799 -109.094966    0.000167   1.040    0.00015    0.00011
        902    35 -109.094797 -109.094936    0.000139   1.040    0.00015    0.00011
        903    34 -109.094797 -109.094904    0.000106   1.040    0.00015    0.00011
        904    35 -109.094798 -109.094868    0.000070   1.040    0.00015    0.00011
        905    35 -109.094801 -109.094833    0.000032   1.040    0.00016    0.00010
        906    35 -109.094804 -109.094797    0.000007   1.040    0.00017    0.00010
        907    35 -109.094809 -109.094764    0.000045   1.040    0.00018    0.00009
        908    38 -109.094814 -109.094735    0.000079   1.040    0.00019    0.00008
        909    35 -109.094819 -109.094705    0.000114   1.040    0.00019    0.00008
        910    38 -109.094824 -109.094685    0.000138   1.040    0.00020    0.00007
        911    38 -109.094829 -109.094664    0.000164   1.040    0.00020    0.00007
        912    38 -109.094833 -109.094652    0.000181   1.040    0.00019    0.00007
        913    35 -109.094836 -109.094640    0.000197   1.040    0.00018    0.00007
        914    35 -109.094839 -109.094635    0.000203   1.040    0.00018    0.00007
        915    35 -109.094841 -109.094632    0.000209   1.040    0.00016    0.00008
        916    35 -109.094841 -109.094633    0.000208   1.040    0.00015    0.00008
        917    35 -109.094841 -109.094636    0.000205   1.040    0.00014    0.00008
        918    35 -109.094840 -109.094641    0.000199   1.040    0.00013    0.00008
        919    38 -109.094838 -109.094649    0.000190   1.040    0.00013    0.00008
        920    35 -109.094837 -109.094656    0.000181   1.040    0.00012    0.00008
        921    38 -109.094834 -109.094667    0.000167   1.040    0.00012    0.00008
        922    35 -109.094833 -109.094675    0.000158   1.040    0.00013    0.00007
        923    39 -109.094830 -109.094687    0.000143   1.040    0.00013    0.00006
        924    38 -109.094828 -109.094699    0.000130   1.040    0.00013    0.00006
        925    39 -109.094826 -109.094710    0.000116   1.040    0.00014    0.00005
        926    39 -109.094825 -109.094723    0.000102   1.040    0.00014    0.00005
        927    40 -109.094823 -109.094735    0.000089   1.040    0.00014    0.00004
        928    39 -109.094823 -109.094747    0.000075   1.040    0.00014    0.00004
        929    40 -109.094822 -109.094759    0.000063   1.040    0.00014    0.00005
        930    36 -109.094821 -109.094771    0.000050   1.040    0.00014    0.00005
        931    39 -109.094820 -109.094781    0.000039   1.040    0.00013    0.00005
        932    35 -109.094820 -109.094792    0.000028   1.040    0.00013    0.00006
        933    36 -109.094820 -109.094800    0.000019   1.040    0.00013    0.00006
        934    35 -109.094819 -109.094807    0.000012   1.040    0.00013    0.00006
        935    35 -109.094819 -109.094813    0.000006   1.040    0.00013    0.00006
        936    35 -109.094818 -109.094816    0.000002   1.040    0.00013    0.00006
        937    35 -109.094817 -109.094818    0.000001   1.040    0.00013    0.00006
        938    35 -109.094817 -109.094818    0.000002   1.040    0.00013    0.00006
        939    35 -109.094816 -109.094816    0.000001   1.040    0.00013    0.00005
        940    35 -109.094815 -109.094813    0.000002   1.040    0.00013    0.00005
        941    35 -109.094814 -109.094808    0.000007   1.040    0.00013    0.00005
        942    35 -109.094813 -109.094801    0.000012   1.040    0.00013    0.00005
        943    38 -109.094813 -109.094794    0.000019   1.040    0.00013    0.00005
        944    38 -109.094812 -109.094784    0.000028   1.040    0.00013    0.00005
        945    38 -109.094812 -109.094776    0.000036   1.040    0.00012    0.00005
        946    35 -109.094811 -109.094765    0.000047   1.040    0.00012    0.00005
        947    35 -109.094811 -109.094756    0.000056   1.040    0.00011    0.00005
        948    35 -109.094811 -109.094745    0.000066   1.040    0.00011    0.00006
        949    35 -109.094811 -109.094736    0.000075   1.040    0.00011    0.00006
        950    34 -109.094811 -109.094728    0.000084   1.040    0.00011    0.00006
        951    34 -109.094812 -109.094720    0.000092   1.040    0.00011    0.00006
        952    34 -109.094813 -109.094714    0.000099   1.040    0.00011    0.00005
        953    35 -109.094813 -109.094708    0.000105   1.040    0.00011    0.00005
        954    38 -109.094815 -109.094704    0.000110   1.040    0.00011    0.00005
        955    35 -109.094816 -109.094701    0.000115   1.040    0.00011    0.00005
        956    38 -109.094817 -109.094701    0.000116   1.040    0.00011    0.00004
        957    38 -109.094819 -109.094701    0.000118   1.040    0.00011    0.00004
        958    38 -109.094820 -109.094703    0.000117   1.040    0.00011    0.00004
        959    39 -109.094822 -109.094707    0.000115   1.040    0.00011    0.00004
        960    39 -109.094823 -109.094711    0.000112   1.040    0.00011    0.00004
        961    39 -109.094825 -109.094717    0.000108   1.040    0.00011    0.00005
        962    39 -109.094826 -109.094724    0.000103   1.040    0.00010    0.00005
        963    39 -109.094828 -109.094731    0.000097   1.040    0.00010    0.00005
        964    39 -109.094829 -109.094739    0.000090   1.040    0.00010    0.00005
        965    39 -109.094830 -109.094747    0.000084   1.040    0.00010    0.00005
        966    39 -109.094831 -109.094755    0.000076   1.040    0.00010    0.00005
        967    39 -109.094832 -109.094763    0.000069   1.040    0.00010    0.00005
        968    39 -109.094833 -109.094771    0.000062   1.040    0.00010    0.00004
        969    39 -109.094833 -109.094778    0.000055   1.040    0.00010    0.00004
        970    42 -109.094834 -109.094784    0.000049   1.040    0.00011    0.00004
        971    39 -109.094833 -109.094790    0.000043   1.040    0.00011    0.00004
        972    42 -109.094833 -109.094795    0.000039   1.040    0.00011    0.00004
        973    38 -109.094832 -109.094798    0.000034   1.040    0.00011    0.00004
        974    42 -109.094832 -109.094801    0.000031   1.040    0.00010    0.00004
        975    38 -109.094831 -109.094802    0.000029   1.040    0.00010    0.00004
        976    42 -109.094831 -109.094802    0.000028   1.040    0.00010    0.00004
        977    38 -109.094829 -109.094801    0.000028   1.040    0.00010    0.00004
        978    42 -109.094828 -109.094799    0.000029   1.040    0.00010    0.00004

        ==> Orbital Optimization <==

            Jacobi Optimization converged.
            Total energy change: -6.996855e-07

        979    70 -109.094984 -109.091730    0.003254   1.040    0.00061    0.00087
        980    42 -109.095183 -109.093093    0.002090   1.040    0.00061    0.00053
        981    37 -109.095299 -109.093984    0.001316   1.040    0.00054    0.00047
        982    33 -109.095314 -109.094404    0.000910   1.040    0.00044    0.00044
        983    37 -109.095273 -109.094569    0.000704   1.040    0.00042    0.00037
        984    37 -109.095226 -109.094579    0.000647   1.040    0.00044    0.00026
        985    38 -109.095183 -109.094571    0.000612   1.040    0.00039    0.00021
        986    40 -109.095140 -109.094615    0.000524   1.040    0.00030    0.00027
        987    38 -109.095090 -109.094821    0.000269   1.040    0.00028    0.00030
        988    37 -109.095037 -109.095141    0.000105   1.040    0.00030    0.00030
        989    33 -109.094981 -109.095498    0.000517   1.040    0.00030    0.00029
        990    34 -109.094924 -109.095765    0.000841   1.040    0.00025    0.00029
        991    32 -109.094871 -109.095878    0.001007   1.040    0.00019    0.00029
        992    32 -109.094819 -109.095837    0.001018   1.040    0.00018    0.00027
        993    36 -109.094775 -109.095681    0.000906   1.040    0.00019    0.00025
        994    36 -109.094741 -109.095487    0.000746   1.040    0.00020    0.00022
        995    37 -109.094718 -109.095304    0.000586   1.040    0.00020    0.00020
        996    37 -109.094708 -109.095171    0.000462   1.040    0.00020    0.00018
        997    38 -109.094709 -109.095090    0.000380   1.040    0.00020    0.00016
        998    41 -109.094720 -109.095042    0.000322   1.040    0.00020    0.00015
        999    41 -109.094736 -109.095001    0.000265   1.040    0.00021    0.00015

        ==> Orbital Optimization <==

            Jacobi Optimization converged.
            Total energy change: -1.575603e-08

       1000    41 -109.094757 -109.094330    0.000427   1.443    0.00021    0.00015
       1001    39 -109.094765 -109.095004    0.000239   1.443    0.00024    0.00018
       1002    40 -109.094782 -109.094937    0.000155   1.443    0.00025    0.00016
       1003    41 -109.094798 -109.094843    0.000045   1.443    0.00024    0.00017
       1004    38 -109.094812 -109.094743    0.000069   1.443    0.00023    0.00018
       1005    37 -109.094823 -109.094668    0.000155   1.443    0.00021    0.00018
       1006    32 -109.094834 -109.094624    0.000209   1.443    0.00018    0.00018
       1007    36 -109.094841 -109.094611    0.000230   1.443    0.00016    0.00017
       1008    35 -109.094845 -109.094600    0.000245   1.443    0.00015    0.00017
       1009    35 -109.094846 -109.094593    0.000253   1.443    0.00013    0.00016
       1010    35 -109.094844 -109.094580    0.000264   1.443    0.00013    0.00015
       1011    35 -109.094842 -109.094562    0.000280   1.443    0.00013    0.00014
       1012    33 -109.094839 -109.094544    0.000296   1.443    0.00014    0.00013
       1013    35 -109.094837 -109.094528    0.000309   1.443    0.00015    0.00011
       1014    35 -109.094836 -109.094523    0.000313   1.443    0.00015    0.00010
       1015    35 -109.094835 -109.094526    0.000309   1.443    0.00016    0.00010
       1016    35 -109.094834 -109.094539    0.000295   1.443    0.00015    0.00010
       1017    35 -109.094833 -109.094557    0.000277   1.443    0.00015    0.00010
       1018    35 -109.094833 -109.094577    0.000256   1.443    0.00014    0.00011
       1019    35 -109.094833 -109.094597    0.000235   1.443    0.00012    0.00012
       1020    35 -109.094833 -109.094617    0.000216   1.443    0.00011    0.00012
       1021    35 -109.094834 -109.094635    0.000198   1.443    0.00010    0.00012
       1022    35 -109.094835 -109.094655    0.000180   1.443    0.00010    0.00012
       1023    34 -109.094837 -109.094678    0.000159   1.443    0.00010    0.00012
       1024    35 -109.094841 -109.094704    0.000136   1.443    0.00010    0.00011
       1025    35 -109.094844 -109.094734    0.000110   1.443    0.00011    0.00010
       1026    35 -109.094848 -109.094766    0.000081   1.443    0.00012    0.00009
       1027    35 -109.094851 -109.094800    0.000051   1.443    0.00012    0.00008
       1028    35 -109.094854 -109.094835    0.000019   1.443    0.00013    0.00008
       1029    35 -109.094856 -109.094868    0.000012   1.443    0.00014    0.00007
       1030    37 -109.094856 -109.094900    0.000044   1.443    0.00014    0.00007
       1031    37 -109.094855 -109.094926    0.000071   1.443    0.00014    0.00007
       1032    37 -109.094853 -109.094950    0.000097   1.443    0.00014    0.00008
       1033    37 -109.094849 -109.094967    0.000118   1.443    0.00013    0.00008
       1034    36 -109.094844 -109.094978    0.000134   1.443    0.00013    0.00009
       1035    31 -109.094838 -109.094981    0.000142   1.443    0.00012    0.00009
       1036    35 -109.094832 -109.094979    0.000147   1.443    0.00011    0.00009
       1037    31 -109.094825 -109.094965    0.000140   1.443    0.00010    0.00009
       1038    35 -109.094819 -109.094948    0.000129   1.443    0.00010    0.00009
       1039    32 -109.094813 -109.094922    0.000109   1.443    0.00010    0.00008
       1040    33 -109.094808 -109.094892    0.000083   1.443    0.00010    0.00008

        ==> Orbital Optimization <==

            Jacobi Optimization converged.
            Total energy change: -2.678942e-08

       1041    50 -109.094831 -109.094195    0.000636   1.443    0.00012    0.00018
       1042    39 -109.094856 -109.094409    0.000448   1.443    0.00014    0.00013
       1043    35 -109.094874 -109.094567    0.000307   1.443    0.00014    0.00011
       1044    33 -109.094878 -109.094660    0.000218   1.443    0.00012    0.00010
       1045    35 -109.094874 -109.094688    0.000186   1.443    0.00011    0.00009
       1046    35 -109.094867 -109.094684    0.000183   1.443    0.00011    0.00007
       1047    37 -109.094861 -109.094664    0.000198   1.443    0.00010    0.00007
       1048    37 -109.094855 -109.094658    0.000198   1.443    0.00010    0.00009
       1049    35 -109.094849 -109.094681    0.000169   1.443    0.00010    0.00010
       1050    34 -109.094843 -109.094732    0.000111   1.443    0.00010    0.00011
       1051    34 -109.094835 -109.094790    0.000045   1.443    0.00010    0.00011
       1052    32 -109.094828 -109.094836    0.000008   1.443    0.00009    0.00011
       1053    33 -109.094821 -109.094853    0.000031   1.443    0.00009    0.00011
       1054    33 -109.094816 -109.094841    0.000025   1.443    0.00009    0.00010
       1055    35 -109.094812 -109.094809    0.000003   1.443    0.00010    0.00009

        ==> Orbital Optimization <==

            Jacobi Optimization converged.
            Total energy change: -2.216638e-09


      v2RDM iterations converged!

      v2RDM total spin [S(S+1)]:             0.000004
    * v2RDM total energy:           -109.094811743719



Properties will be evaluated at   0.000000,   0.000000,   0.000000 Bohr


Properties will be evaluated at   0.000000,   0.000000,   0.000000 Bohr

  Mulliken Charges: (a.u.)

   Center  Symbol    Alpha    Beta     Spin     Total
       1     N     3.50000  3.50000  0.00000  0.00000
       2     N     3.50000  3.50000  0.00000  0.00000

   Total alpha =  7.00000, Total beta =  7.00000, Total charge =  0.00000

 # Natural Orbital Occupation Numbers (alpha) #
 Irrep: 1
      1:  1.0000000
      2:  1.0000000
      3:  0.9906705
      4:  0.0000000
      5:  0.0000000
      6:  0.0000000
      7:  0.0000000

 Irrep: 2
      1:  0.0000000

 Irrep: 3
      1:  0.0327590
      2:  0.0000000
      3:  0.0000000

 Irrep: 4
      1:  0.0327588
      2:  0.0000000
      3:  0.0000000

 Irrep: 5
      1:  0.0000000

 Irrep: 6
      1:  1.0000000
      2:  1.0000000
      3:  0.0093251
      4:  0.0000000
      5:  0.0000000
      6:  0.0000000
      7:  0.0000000

 Irrep: 7
      1:  0.9672432
      2:  0.0000000
      3:  0.0000000

 Irrep: 8
      1:  0.9672433
      2:  0.0000000
      3:  0.0000000


 # Natural Orbital Occupation Numbers (beta) #
 Irrep: 1
      1:  1.0000000
      2:  1.0000000
      3:  0.9905832
      4:  0.0000000
      5:  0.0000000
      6:  0.0000000
      7:  0.0000000

 Irrep: 2
      1:  0.0000000

 Irrep: 3
      1:  0.0327256
      2:  0.0000000
      3:  0.0000000

 Irrep: 4
      1:  0.0327255
      2:  0.0000000
      3:  0.0000000

 Irrep: 5
      1:  0.0000000

 Irrep: 6
      1:  1.0000000
      2:  1.0000000
      3:  0.0094327
      4:  0.0000000
      5:  0.0000000
      6:  0.0000000
      7:  0.0000000

 Irrep: 7
      1:  0.9672664
      2:  0.0000000
      3:  0.0000000

 Irrep: 8
      1:  0.9672665
      2:  0.0000000
      3:  0.0000000


*** tstop() called on ubuntu at Wed Aug 19 08:56:51 2015
Module time:
	user time   =       2.64 seconds =       0.04 minutes
	system time =       0.01 seconds =       0.00 minutes
	total time  =          3 seconds =       0.05 minutes
Total time:
	user time   =       8.87 seconds =       0.15 minutes
	system time =       0.03 seconds =       0.00 minutes
	total time  =          9 seconds =       0.15 minutes

*** PSI4 exiting successfully. Buy a developer a beer!
