    -----------------------------------------------------------------------
          Psi4: An Open-Source Ab Initio Electronic Structure Package
                              Psi4  Driver

                          Git: Rev {detached?}  

    J. M. Turney, A. C. Simmonett, R. M. Parrish, E. G. Hohenstein,
    F. A. Evangelista, J. T. Fermann, B. J. Mintz, L. A. Burns, J. J. Wilke,
    M. L. Abrams, N. J. Russ, M. L. Leininger, C. L. Janssen, E. T. Seidl,
    W. D. Allen, H. F. Schaefer, R. A. King, E. F. Valeev, C. D. Sherrill,
    and T. D. Crawford, WIREs Comput. Mol. Sci. 2, 556-565 (2012)
    (doi: 10.1002/wcms.93)

                         Additional Contributions by
    A. E. DePrince, M. Saitow, U. Bozkaya, A. Yu. Sokolov
    -----------------------------------------------------------------------


    Psi4 started on: Wed Aug 19 09:12:46 2015

    Process ID:  20083
    PSI4DATADIR: /apps/software/psi4public-master/install/share/psi
    Memory level set to 256.000 MB

  ==> Input File <==

--------------------------------------------------------------------------

# PYTHONPATH must include directory above plugin directory.
#     Define either externally or here, then import plugin.
sys.path.insert(0, '../..')
import v2rdm_casscf

molecule mol {
0 1
n
n 1 r
}

set {
  guess sad
  basis 6-31g
  scf_type pk
  df_basis_scf cc-pvdz-jkfit 
  cholesky_tolerance 1.0e-12
  d_convergence 1e-10
  maxiter 500
  reference rhf
  #active space[ 1, 0, 1, 1, 0, 1, 1, 1 ]
  frozen_docc  [ 2, 0, 0, 0, 0, 2, 0, 0 ]
  frozen_uocc  [ 2, 0, 1, 1, 0, 2, 1, 1 ]
  #frozen_docc  [  4 ]
  #frozen_uocc  [ 18 ]
}
set v2rdm_casscf {
  positivity dqg
  constrain_spin true
  constrain_d3   false
  spin_adapt_g2  false
  spin_adapt_q2  false
  r_convergence  1e-5
  e_convergence  1e-5
  cg_convergence 1e-6
  jacobi_write 1
  jacobi_nthread 8
  maxiter 20000
}

activate(mol)
mol.r = 0.5
energy('v2rdm-casscf')
mol.r = 1.1
energy('v2rdm-casscf')
--------------------------------------------------------------------------
/home/greg/v2rdm_casscf/v2rdm_casscf.so loaded.
Setting geometry variable r to 0.500000

*** tstart() called on ubuntu
*** at Wed Aug 19 09:12:46 2015


         ---------------------------------------------------------
                                   SCF
            by Justin Turney, Rob Parrish, and Andy Simmonett
                              RHF Reference
                        1 Threads,    256 MiB Core
         ---------------------------------------------------------

  ==> Geometry <==

    Molecular point group: d2h
    Full point group: D_inf_h

    Geometry (in Angstrom), charge = 0, multiplicity = 1:

       Center              X                  Y                   Z       
    ------------   -----------------  -----------------  -----------------
           N          0.000000000000     0.000000000000    -0.250000000000
           N          0.000000000000     0.000000000000     0.250000000000

  Running in d2h symmetry.

  Rotational constants: A = ************  B =      9.63082  C =      9.63082 [cm^-1]
  Rotational constants: A = ************  B = 288724.60708  C = 288724.60708 [MHz]
  Nuclear repulsion =   51.859366441820001

  Charge       = 0
  Multiplicity = 1
  Electrons    = 14
  Nalpha       = 7
  Nbeta        = 7

  ==> Algorithm <==

  SCF Algorithm Type is PK.
  DIIS enabled.
  MOM disabled.
  Fractional occupation disabled.
  Guess Type is SAD.
  Energy threshold   = 1.00e-08
  Density threshold  = 1.00e-10
  Integral threshold = 0.00e+00

  ==> Primary Basis <==

  Basis Set: 6-31G
    Number of shells: 10
    Number of basis function: 18
    Number of Cartesian functions: 18
    Spherical Harmonics?: false
    Max angular momentum: 1

  ==> Pre-Iterations <==

   -------------------------------------------------------
    Irrep   Nso     Nmo     Nalpha   Nbeta   Ndocc  Nsocc
   -------------------------------------------------------
     Ag         5       5       0       0       0       0
     B1g        0       0       0       0       0       0
     B2g        2       2       0       0       0       0
     B3g        2       2       0       0       0       0
     Au         0       0       0       0       0       0
     B1u        5       5       0       0       0       0
     B2u        2       2       0       0       0       0
     B3u        2       2       0       0       0       0
   -------------------------------------------------------
    Total      18      18       7       7       7       0
   -------------------------------------------------------

  Starting with a DF guess...

 OEINTS: Overlap, kinetic, potential, dipole, and quadrupole integrals
         stored in file 35.

  ==> Integral Setup <==

  ==> DFJK: Density-Fitted J/K Matrices <==

    J tasked:                  Yes
    K tasked:                  Yes
    wK tasked:                  No
    OpenMP threads:              1
    Integrals threads:           1
    Memory (MB):               183
    Algorithm:                Core
    Integral Cache:           SAVE
    Schwarz Cutoff:          1E-12
    Fitting Condition:       1E-12

   => Auxiliary Basis Set <=

  Basis Set: CC-PVDZ-JKFIT
    Number of shells: 48
    Number of basis function: 162
    Number of Cartesian functions: 162
    Spherical Harmonics?: false
    Max angular momentum: 3

  Minimum eigenvalue in the overlap matrix is 8.6499039983E-05.
  Using Symmetric Orthogonalization.
  SCF Guess: Superposition of Atomic Densities via on-the-fly atomic UHF.

  ==> Iterations <==

                           Total Energy        Delta E     RMS |[F,P]|

   @DF-RHF iter   0:  -108.40178736251504   -1.08402e+02   9.14119e-01 
   @DF-RHF iter   1:  -102.90731972653928    5.49447e+00   3.45305e-02 
   @DF-RHF iter   2:  -102.95080757449158   -4.34878e-02   6.90499e-03 DIIS
   @DF-RHF iter   3:  -102.95277766417770   -1.97009e-03   1.79604e-03 DIIS
   @DF-RHF iter   4:  -102.95295886386170   -1.81200e-04   1.57368e-04 DIIS
   @DF-RHF iter   5:  -102.95296008806095   -1.22420e-06   1.94322e-05 DIIS
   @DF-RHF iter   6:  -102.95296010881979   -2.07588e-08   1.13648e-06 DIIS
   @DF-RHF iter   7:  -102.95296010889000   -7.02016e-11   1.49345e-07 DIIS
   @DF-RHF iter   8:  -102.95296010889122   -1.22213e-12   2.72655e-09 DIIS
   @DF-RHF iter   9:  -102.95296010889122    0.00000e+00   1.63290e-10 DIIS
   @DF-RHF iter  10:  -102.95296010889130   -8.52651e-14   1.48118e-11 DIIS

  DF guess converged.

  ==> Integral Setup <==

 MINTS: Wrapper to libmints.
   by Justin Turney

   Calculation information:
      Number of atoms:                   2
      Number of AO shells:              10
      Number of SO shells:               5
      Number of primitives:             28
      Number of atomic orbitals:        18
      Number of basis functions:        18

      Number of irreps:                  8
      Integral cutoff                 0.00e+00
      Number of functions per irrep: [   5    0    2    2    0    5    2    2 ]

 OEINTS: Overlap, kinetic, potential, dipole, and quadrupole integrals
         stored in file 35.

      Computing two-electron integrals...done
      Computed 2376 non-zero two-electron integrals.
        Stored in file 33.

	Batch   1 pq = [       0,      42] index = [             0,903]
  ==> DiskJK: Disk-Based J/K Matrices <==

    J tasked:                  Yes
    K tasked:                  Yes
    wK tasked:                  No
    Memory (MB):               183
    Schwarz Cutoff:          1E-12

   @RHF iter  11:  -102.95323893941718   -2.78831e-04   1.73995e-05 DIIS
   @RHF iter  12:  -102.95323895066652   -1.12493e-08   3.45245e-06 DIIS
   @RHF iter  13:  -102.95323895112794   -4.61426e-10   7.75976e-07 DIIS
   @RHF iter  14:  -102.95323895115961   -3.16618e-11   8.40004e-08 DIIS
   @RHF iter  15:  -102.95323895115997   -3.69482e-13   1.03324e-08 DIIS
   @RHF iter  16:  -102.95323895116000   -2.84217e-14   8.69933e-10 DIIS
   @RHF iter  17:  -102.95323895116000    0.00000e+00   3.35179e-11 DIIS

  ==> Post-Iterations <==

    Orbital Energies (a.u.)
    -----------------------

    Doubly Occupied:                                                      

       1Ag   -16.528361     1B1u  -15.835299     2Ag    -1.471148  
       1B3u   -1.190962     1B2u   -1.190962     2B1u   -0.544148  
       3Ag    -0.522555  

    Virtual:                                                              

       1B2g    0.526561     1B3g    0.526561     2B3u    0.567577  
       2B2u    0.567577     3B1u    0.664618     4Ag     0.709839  
       5Ag     1.005832     4B1u    1.507046     2B2g    1.639676  
       2B3g    1.639676     5B1u    9.841678  

    Final Occupation by Irrep:
             Ag   B1g   B2g   B3g    Au   B1u   B2u   B3u 
    DOCC [     3,    0,    0,    0,    0,    2,    1,    1 ]

  Energy converged.

  @RHF Final Energy:  -102.95323895116000

   => Energetics <=

    Nuclear Repulsion Energy =             51.8593664418200007
    One-Electron Energy =                -235.0583397919170636
    Two-Electron Energy =                  80.2457343989370884
    DFT Exchange-Correlation Energy =       0.0000000000000000
    Empirical Dispersion Energy =           0.0000000000000000
    PCM Polarization Energy =               0.0000000000000000
    EFP Energy =                            0.0000000000000000
    Total Energy =                       -102.9532389511599604

    Alert: EFP and PCM quantities not currently incorporated into SCF psivars.

Properties will be evaluated at   0.000000,   0.000000,   0.000000 Bohr
  ==> Properties <==


Properties computed using the SCF density matrix

  Nuclear Dipole Moment: (a.u.)
     X:     0.0000      Y:     0.0000      Z:     0.0000

  Electronic Dipole Moment: (a.u.)
     X:     0.0000      Y:     0.0000      Z:     0.0000

  Dipole Moment: (a.u.)
     X:     0.0000      Y:     0.0000      Z:     0.0000     Total:     0.0000

  Dipole Moment: (Debye)
     X:     0.0000      Y:     0.0000      Z:     0.0000     Total:     0.0000


  Saving occupied orbitals to File 180.

*** tstop() called on ubuntu at Wed Aug 19 09:12:47 2015
Module time:
	user time   =       0.39 seconds =       0.01 minutes
	system time =       0.01 seconds =       0.00 minutes
	total time  =          1 seconds =       0.02 minutes
Total time:
	user time   =       0.39 seconds =       0.01 minutes
	system time =       0.01 seconds =       0.00 minutes
	total time  =          1 seconds =       0.02 minutes
Reading options from the V2RDM_CASSCF block
Calling plugin v2rdm_casscf.so.

*** tstart() called on ubuntu
*** at Wed Aug 19 09:12:47 2015



        *******************************************************
        *                                                     *
        *    v-2RDM                                           *
        *                                                     *
        *    Ground-state variational 2-RDM optimization      *
        *    using a boundary-point semidefinite solver       *
        *                                                     *
        *    Eugene DePrince                                  *
        *                                                     *
        *******************************************************

  ==> Input parameters <==

        Freeze core orbitals?                 yes
        Number of frozen core orbitals:         4
        Number of active occupied orbitals:     3
        Number of active virtual orbitals:      3
        Number of frozen virtual orbitals:      8
        r_convergence:                  1.000e-05
        e_convergence:                  1.000e-05
        cg_convergence:                 1.000e-06
        maxiter:                            20000
        cg_maxiter:                         10000

  ==> Memory requirements <==

        D2:                          0.00 mb
        Q2:                          0.00 mb
        G2:                          0.01 mb

        Total number of variables:           1500
        Total number of constraints:         1282
        Total memory requirements:        0.91 mb

    ==> Transform two-electron integrals <==

	Presorting SO-basis two-electron integrals.
	Sorting File: SO Ints (nn|nn) nbuckets = 1
	Transforming the one-electron integrals and constructing Fock matrices
	Starting first half-transformation.
	Sorting half-transformed integrals.
	First half integral transformation complete.
	Starting second half-transformation.
	Two-electron integral transformation complete.

        Time for integral transformation:     0.01 s


        Read integrals......done.


    reference energy:        -102.953238951160
    frozen core energy:      -138.050209433659
    initial 2-RDM energy:     -73.224322022101

      oiter iiter        E(p)        E(d)      E gap)      mu     eps(p)     eps(d)
          0    67 -113.685936  144.514198  258.200134   1.000   50.73973   72.62452
          1    40  -82.917283 -268.205060  185.287777   1.000    9.55138   30.76602
          2    47 -110.119714 -113.174992    3.055278   1.000   13.99042    6.56349
          3    39  -97.847259 -103.429477    5.582218   1.000    6.27777    3.71483
          4    42 -101.622210 -101.926494    0.304284   1.000    3.34109    2.97463
          5    42  -98.637972  -99.657978    1.020005   1.000    1.77337    2.12654
          6    35 -100.946186  -98.832739    2.113447   1.000    1.27009    1.55057
          7    38 -100.340096  -97.576595    2.763501   1.000    0.81787    1.45669
          8    37 -101.262990  -99.878590    1.384400   1.000    0.59336    0.87586
          9    42 -100.954779 -100.151309    0.803470   1.000    0.24245    0.67636
         10    42 -101.337095 -100.119676    1.217419   1.000    0.22236    0.54030
         11    38 -101.371889  -99.808018    1.563871   1.000    0.19857    0.46238
         12    35 -101.653524  -99.824807    1.828717   1.000    0.16628    0.42307
         13    41 -101.755874 -100.030654    1.725220   1.000    0.18296    0.39246
         14    40 -101.902458 -100.298443    1.604015   1.000    0.16687    0.37616
         15    40 -101.979552 -100.437367    1.542185   1.000    0.15765    0.36178
         16    37 -102.097353 -100.469800    1.627553   1.000    0.16651    0.34856
         17    39 -102.193454 -100.538335    1.655120   1.000    0.16638    0.33806
         18    32 -102.300723 -100.594441    1.706282   1.000    0.16263    0.33108
         19    38 -102.390298 -100.746585    1.643713   1.000    0.15366    0.32090
         20    38 -102.466691 -100.962125    1.504566   1.000    0.16966    0.29569
         21    40 -102.514147 -101.325952    1.188195   1.000    0.20933    0.25018
         22    40 -102.549218 -101.832554    0.716663   1.000    0.21898    0.20131
         23    41 -102.563047 -102.293108    0.269940   1.000    0.19615    0.18381
         24    38 -102.568857 -102.548298    0.020559   1.000    0.15263    0.18264
         25    31 -102.571828 -102.561919    0.009910   1.000    0.12442    0.17594
         26    38 -102.583041 -102.425853    0.157188   1.000    0.10969    0.16659
         27    40 -102.600290 -102.199112    0.401179   1.000    0.09574    0.16156
         28    39 -102.628420 -101.974896    0.653524   1.000    0.07924    0.16063
         29    37 -102.661385 -101.844913    0.816472   1.000    0.06994    0.15705
         30    33 -102.690290 -101.805003    0.885287   1.000    0.08347    0.14681
         31    38 -102.714536 -101.937540    0.776996   1.000    0.12096    0.13092
         32    35 -102.732894 -102.179339    0.553555   1.000    0.09961    0.12830
         33    34 -102.734346 -102.339141    0.395204   1.000    0.04163    0.13454
         34    31 -102.735607 -102.343243    0.392365   1.000    0.03485    0.13227
         35    38 -102.744762 -102.261969    0.482794   1.000    0.05949    0.12545
         36    35 -102.760303 -102.177206    0.583097   1.000    0.05749    0.12295
         37    33 -102.779924 -102.142504    0.637420   1.000    0.04179    0.12413
         38    31 -102.799799 -102.163388    0.636411   1.000    0.03065    0.12476
         39    35 -102.817469 -102.213436    0.604033   1.000    0.02570    0.12423
         40    35 -102.832260 -102.255050    0.577210   1.000    0.02097    0.12361
         41    33 -102.845701 -102.264903    0.580798   1.000    0.02233    0.12305
         42    33 -102.859132 -102.242584    0.616548   1.000    0.02730    0.12251
         43    33 -102.873291 -102.204256    0.669035   1.000    0.02703    0.12229
         44    32 -102.888738 -102.170885    0.717853   1.000    0.02022    0.12245
         45    32 -102.904385 -102.156159    0.748225   1.000    0.01134    0.12263
         46    35 -102.920071 -102.162895    0.757176   1.000    0.01082    0.12253
         47    37 -102.934967 -102.183227    0.751740   1.000    0.01593    0.12223
         48    38 -102.949414 -102.205593    0.743821   1.000    0.01788    0.12189
         49    32 -102.961110 -102.222354    0.738755   1.000    0.03816    0.11728
         50    35 -102.976187 -102.298091    0.678096   1.000    0.11138    0.08965
         51    41 -103.004521 -102.653719    0.350802   1.000    0.14486    0.03632
         52    47 -103.003115 -103.094255    0.091140   1.000    0.12094    0.03783
         53    41 -102.984576 -103.379329    0.394753   1.000    0.06566    0.05315
         54    38 -102.960844 -103.442343    0.481498   1.000    0.02764    0.04964
         55    41 -102.941139 -103.317098    0.375960   1.000    0.05705    0.03672
         56    41 -102.931794 -103.091447    0.159653   1.000    0.07252    0.02033
         57    42 -102.935403 -102.869894    0.065509   1.000    0.06083    0.01393
         58    42 -102.947569 -102.733065    0.214504   1.000    0.03247    0.02319
         59    32 -102.961840 -102.713733    0.248107   1.000    0.01640    0.02527
         60    41 -102.971090 -102.784759    0.186331   1.000    0.03328    0.01882
         61    40 -102.974738 -102.901311    0.073427   1.000    0.04064    0.00744
         62    48 -102.971828 -103.013615    0.041787   1.000    0.03368    0.00654
         63    46 -102.965138 -103.080783    0.115645   1.000    0.01934    0.01263
         64    32 -102.958078 -103.088347    0.130269   1.000    0.01303    0.01325
         65    40 -102.953551 -103.048025    0.094474   1.000    0.01961    0.00936
         66    41 -102.952307 -102.984894    0.032587   1.000    0.02223    0.00423
         67    46 -102.954255 -102.927244    0.027011   1.000    0.01851    0.00477
         68    41 -102.957783 -102.895457    0.062326   1.000    0.01278    0.00756
         69    36 -102.960054 -102.899933    0.060121   1.000    0.01184    0.00684
         70    42 -102.962756 -102.918935    0.043821   1.000    0.01355    0.00505
         71    41 -102.963526 -102.948937    0.014589   1.000    0.01429    0.00305
         72    47 -102.962672 -102.974859    0.012187   1.000    0.01275    0.00307
         73    46 -102.960502 -102.990662    0.030160   1.000    0.01080    0.00404
         74    37 -102.958407 -102.992606    0.034199   1.000    0.00978    0.00416
         75    41 -102.956982 -102.983503    0.026521   1.000    0.01003    0.00335
         76    41 -102.956459 -102.968107    0.011649   1.000    0.01020    0.00235
         77    42 -102.956875 -102.952976    0.003899   1.000    0.00980    0.00218
         78    41 -102.957866 -102.943064    0.014802   1.000    0.00918    0.00258
         79    38 -102.959017 -102.940730    0.018288   1.000    0.00901    0.00267
         80    41 -102.959884 -102.944972    0.014912   1.000    0.00922    0.00239
         81    42 -102.960337 -102.953692    0.006645   1.000    0.00932    0.00187
         82    47 -102.960071 -102.962251    0.002181   1.000    0.00905    0.00175
         83    42 -102.959585 -102.967981    0.008396   1.000    0.00863    0.00188
         84    41 -102.958932 -102.969836    0.010903   1.000    0.00832    0.00190
         85    41 -102.958402 -102.967785    0.009383   1.000    0.00820    0.00174
         86    41 -102.960805 -102.963313    0.002508   1.000    0.00711    0.00170
         87    42 -102.960804 -102.960090    0.000714   1.000    0.00665    0.00146
         88    47 -102.961764 -102.956492    0.005271   1.000    0.00638    0.00141
         89    42 -102.961258 -102.955002    0.006256   1.000    0.00628    0.00137
         90    42 -102.961598 -102.954413    0.007185   1.000    0.00622    0.00132
         91    42 -102.961378 -102.955629    0.005749   1.000    0.00625    0.00125
         92    42 -102.961473 -102.957340    0.004134   1.000    0.00621    0.00117
         93    42 -102.961372 -102.959307    0.002065   1.000    0.00614    0.00112
         94    42 -102.961381 -102.960685    0.000697   1.000    0.00601    0.00111
         95    42 -102.961315 -102.961302    0.000014   1.000    0.00590    0.00109
         96    42 -102.961300 -102.961071    0.000228   1.000    0.00580    0.00107
         97    42 -102.961264 -102.960302    0.000962   1.000    0.00571    0.00106
         98    42 -102.961286 -102.959443    0.001843   1.000    0.00565    0.00101
         99    42 -102.961262 -102.958734    0.002528   1.000    0.00560    0.00095
        100    43 -102.961225 -102.958026    0.003199   1.000    0.00545    0.00109
        101    42 -102.961329 -102.958419    0.002910   1.000    0.00530    0.00104
        102    42 -102.961295 -102.959448    0.001847   1.000    0.00510    0.00105
        103    41 -102.961337 -102.960883    0.000455   1.000    0.00486    0.00108
        104    42 -102.961226 -102.962119    0.000893   1.000    0.00477    0.00109
        105    42 -102.961191 -102.962920    0.001729   1.000    0.00473    0.00095
        106    47 -102.961169 -102.961903    0.000734   1.000    0.00478    0.00086
        107    47 -102.961129 -102.960378    0.000751   1.000    0.00480    0.00083
        108    47 -102.961115 -102.958639    0.002476   1.000    0.00465    0.00088
        109    47 -102.961063 -102.957962    0.003101   1.000    0.00456    0.00074
        110    47 -102.961095 -102.957191    0.003905   1.000    0.00447    0.00071
        111    47 -102.961067 -102.957208    0.003859   1.000    0.00440    0.00068
        112    47 -102.961063 -102.957358    0.003705   1.000    0.00436    0.00066
        113    47 -102.961041 -102.957727    0.003314   1.000    0.00432    0.00069
        114    46 -102.960991 -102.958303    0.002689   1.000    0.00431    0.00064
        115    47 -102.960967 -102.958605    0.002362   1.000    0.00429    0.00062
        116    49 -102.960946 -102.958712    0.002234   1.000    0.00427    0.00060
        117    47 -102.960926 -102.958844    0.002082   1.000    0.00424    0.00059
        118    47 -102.960915 -102.958925    0.001990   1.000    0.00419    0.00071
        119    42 -102.960853 -102.959497    0.001356   1.000    0.00416    0.00062
        120    47 -102.960878 -102.959145    0.001733   1.000    0.00416    0.00058
        121    47 -102.960819 -102.959160    0.001659   1.000    0.00413    0.00057
        122    47 -102.960633 -102.958788    0.001846   1.000    0.00415    0.00073
        123    42 -102.960618 -102.959074    0.001544   1.000    0.00411    0.00064
        124    47 -102.960540 -102.959175    0.001365   1.000    0.00415    0.00057
        125    47 -102.960546 -102.959063    0.001483   1.000    0.00411    0.00052
        126    53 -102.960502 -102.958737    0.001765   1.000    0.00409    0.00051
        127    53 -102.960495 -102.958448    0.002047   1.000    0.00406    0.00049
        128    54 -102.960465 -102.958165    0.002301   1.000    0.00403    0.00051
        129    47 -102.960485 -102.958082    0.002402   1.000    0.00400    0.00069
        130    41 -102.960563 -102.958498    0.002064   1.000    0.00399    0.00054
        131    45 -102.960508 -102.959001    0.001508   1.000    0.00398    0.00049
        132    46 -102.960517 -102.958965    0.001552   1.000    0.00400    0.00046
        133    51 -102.960474 -102.958759    0.001715   1.000    0.00399    0.00045
        134    51 -102.960447 -102.958436    0.002011   1.000    0.00397    0.00044
        135    52 -102.960417 -102.958175    0.002242   1.000    0.00393    0.00046
        136    46 -102.960428 -102.958065    0.002363   1.000    0.00390    0.00049
        137    41 -102.960444 -102.958211    0.002233   1.000    0.00387    0.00054
        138    46 -102.960451 -102.958591    0.001860   1.000    0.00386    0.00066
        139    41 -102.960531 -102.959270    0.001261   1.000    0.00386    0.00056
        140    46 -102.960488 -102.959755    0.000733   1.000    0.00391    0.00053
        141    47 -102.960483 -102.959944    0.000539   1.000    0.00397    0.00056
        142    47 -102.960457 -102.959934    0.000523   1.000    0.00404    0.00045
        143    47 -102.960432 -102.959571    0.000862   1.000    0.00408    0.00042
        144    52 -102.960406 -102.959008    0.001399   1.000    0.00410    0.00039
        145    52 -102.960383 -102.958383    0.002000   1.000    0.00409    0.00036
        146    53 -102.960369 -102.957799    0.002570   1.000    0.00405    0.00035
        147    52 -102.960359 -102.957329    0.003030   1.000    0.00400    0.00036
        148    53 -102.960358 -102.957013    0.003345   1.000    0.00394    0.00036
        149    53 -102.960361 -102.956877    0.003483   1.000    0.00388    0.00039
        150    47 -102.960357 -102.956979    0.003379   1.000    0.00385    0.00042
        151    47 -102.960307 -102.957326    0.002981   1.000    0.00385    0.00039
        152    47 -102.960327 -102.957784    0.002543   1.000    0.00382    0.00035
        153    47 -102.960299 -102.958142    0.002157   1.000    0.00383    0.00033
        154    52 -102.960294 -102.958433    0.001862   1.000    0.00382    0.00033
        155    52 -102.960269 -102.958636    0.001632   1.000    0.00383    0.00040
        156    47 -102.960274 -102.958874    0.001399   1.000    0.00386    0.00035
        157    47 -102.960251 -102.958979    0.001272   1.000    0.00388    0.00047
        158    41 -102.960268 -102.959177    0.001091   1.000    0.00396    0.00039
        159    41 -102.960247 -102.959194    0.001053   1.000    0.00401    0.00034
        160    45 -102.960231 -102.958994    0.001237   1.000    0.00403    0.00043
        161    41 -102.960235 -102.958840    0.001395   1.000    0.00405    0.00040
        162    41 -102.960227 -102.958793    0.001434   1.000    0.00409    0.00032
        163    41 -102.960218 -102.958581    0.001637   1.000    0.00412    0.00052
        164    41 -102.960225 -102.958612    0.001613   1.000    0.00407    0.00041
        165    46 -102.960175 -102.958421    0.001754   1.000    0.00404    0.00032
        166    46 -102.960451 -102.958224    0.002226   1.000    0.00401    0.00035
        167    41 -102.960250 -102.958178    0.002072   1.000    0.00401    0.00031
        168    46 -102.960366 -102.957706    0.002660   1.000    0.00402    0.00028
        169    46 -102.960295 -102.957520    0.002774   1.000    0.00399    0.00027
        170    45 -102.960340 -102.957311    0.003029   1.000    0.00395    0.00027
        171    43 -102.960312 -102.957330    0.002982   1.000    0.00391    0.00027
        172    45 -102.960327 -102.957395    0.002931   1.000    0.00388    0.00026
        173    48 -102.960309 -102.957535    0.002774   1.000    0.00386    0.00026
        174    45 -102.960308 -102.957657    0.002651   1.000    0.00384    0.00025
        175    45 -102.960293 -102.957788    0.002506   1.000    0.00383    0.00025
        176    45 -102.960285 -102.957908    0.002377   1.000    0.00381    0.00025
        177    45 -102.960204 -102.958030    0.002174   1.000    0.00373    0.00031
        178    45 -102.960198 -102.958233    0.001965   1.000    0.00372    0.00039
        179    41 -102.960194 -102.958640    0.001554   1.000    0.00379    0.00034
        180    45 -102.960210 -102.958846    0.001363   1.000    0.00388    0.00029
        181    47 -102.960197 -102.958846    0.001351   1.000    0.00396    0.00027
        182    46 -102.960217 -102.958627    0.001591   1.000    0.00398    0.00026
        183    46 -102.960492 -102.958320    0.002171   1.000    0.00398    0.00031
        184    42 -102.960291 -102.958230    0.002062   1.000    0.00395    0.00026
        185    47 -102.960377 -102.957786    0.002591   1.000    0.00390    0.00025
        186    48 -102.960223 -102.957719    0.002504   1.000    0.00380    0.00031
        187    42 -102.960280 -102.957657    0.002624   1.000    0.00379    0.00026
        188    42 -102.960218 -102.957666    0.002552   1.000    0.00374    0.00023
        189    47 -102.960126 -102.957597    0.002529   1.000    0.00342    0.00039
        190    42 -102.960155 -102.957693    0.002463   1.000    0.00349    0.00030
        191    42 -102.960134 -102.957725    0.002408   1.000    0.00342    0.00024
        192    43 -102.960150 -102.957819    0.002331   1.000    0.00347    0.00022
        193    47 -102.960137 -102.957885    0.002252   1.000    0.00345    0.00022
        194    47 -102.960131 -102.957947    0.002184   1.000    0.00347    0.00021
        195    47 -102.960118 -102.957971    0.002147   1.000    0.00346    0.00021
        196    48 -102.960108 -102.957973    0.002135   1.000    0.00346    0.00021
        197    47 -102.960097 -102.957951    0.002146   1.000    0.00346    0.00020
        198    47 -102.960010 -102.957914    0.002096   1.000    0.00326    0.00029
        199    42 -102.959992 -102.957968    0.002024   1.000    0.00323    0.00024

        ==> Orbital Optimization <==

            Jacobi Optimization converged.
            Total energy change: -2.763707e-02

        200    47 -102.987615 -102.625265    0.362350  14.995    0.00322    0.00021
        201    87 -102.985782 -101.628840    1.356942  14.995    0.01870    0.28945
        202    61 -103.000056 -101.994983    1.005073  14.995    0.01814    0.23239
        203    59 -103.001715 -102.917506    0.084209  14.995    0.01785    0.18705
        204    54 -103.001589 -103.554335    0.552746  14.995    0.01365    0.18813
        205    54 -102.999988 -103.853849    0.853861  14.995    0.00932    0.17960
        206    54 -102.998965 -103.773365    0.774399  14.995    0.00954    0.16796
        207    55 -102.996409 -103.539021    0.542612  14.995    0.01219    0.15115
        208    56 -103.006364 -103.181768    0.175403  14.995    0.01242    0.13778
        209    56 -103.008947 -103.019776    0.010829  14.995    0.00990    0.12514
        210    54 -103.005761 -102.942405    0.063355  14.995    0.00721    0.12072
        211    54 -103.008291 -103.004067    0.004224  14.995    0.00678    0.11360
        212    55 -103.008167 -103.164888    0.156722  14.995    0.00751    0.10001
        213    49 -103.008927 -103.301454    0.292527  14.995    0.00677    0.09368
        214    53 -103.007697 -103.415700    0.408003  14.995    0.00588    0.09389
        215    47 -103.006130 -103.483640    0.477510  14.995    0.00514    0.09516
        216    53 -103.005848 -103.529089    0.523241  14.995    0.00474    0.09159
        217    54 -103.004572 -103.517687    0.513114  14.995    0.00467    0.08938
        218    54 -103.003684 -103.496173    0.492489  14.995    0.00502    0.08675
        219    57 -103.002535 -103.464475    0.461940  14.995    0.00500    0.08599
        220    53 -103.001891 -103.452452    0.450561  14.995    0.00542    0.08047
        221    53 -103.000703 -103.415022    0.414319  14.995    0.00555    0.07436
        222    54 -103.000094 -103.359113    0.359019  14.995    0.00602    0.06740
        223    49 -102.999504 -103.276213    0.276709  14.995    0.00611    0.06094
        224    55 -102.999242 -103.191254    0.192012  14.995    0.00603    0.05594
        225    49 -102.999281 -103.104044    0.104764  14.995    0.00584    0.05259
        226    49 -102.999300 -103.020379    0.021079  14.995    0.00513    0.05157
        227    49 -102.999799 -102.954383    0.045416  14.995    0.00454    0.05130
        228    49 -103.000121 -102.906523    0.093597  14.995    0.00360    0.05150
        229    48 -103.000893 -102.883661    0.117232  14.995    0.00311    0.05095
        230    49 -103.001693 -102.877331    0.124361  14.995    0.00273    0.04986
        231    49 -103.002583 -102.881665    0.120918  14.995    0.00256    0.04804
        232    47 -103.003256 -102.893320    0.109935  14.995    0.00249    0.04573
        233    49 -103.003993 -102.916961    0.087031  14.995    0.00249    0.04292
        234    53 -103.004392 -102.950715    0.053677  14.995    0.00258    0.03964
        235    53 -103.004833 -102.995179    0.009654  14.995    0.00260    0.03603
        236    54 -103.004872 -103.036384    0.031513  14.995    0.00264    0.03330
        237    51 -103.005028 -103.080638    0.075609  14.995    0.00260    0.03150
        238    53 -103.004809 -103.118015    0.113207  14.995    0.00252    0.03095
        239    54 -103.004494 -103.152366    0.147871  14.995    0.00238    0.03155
        240    54 -103.004033 -103.180112    0.176079  14.995    0.00226    0.03263
        241    51 -103.003494 -103.199934    0.196439  14.995    0.00218    0.03362
        242    47 -103.002906 -103.211053    0.208147  14.995    0.00220    0.03402
        243    52 -103.002314 -103.212819    0.210505  14.995    0.00231    0.03360
        244    54 -103.001755 -103.205415    0.203660  14.995    0.00250    0.03233
        245    54 -103.001255 -103.188723    0.187467  14.995    0.00272    0.03036
        246    56 -103.000832 -103.165365    0.164533  14.995    0.00291    0.02895
        247    49 -103.000037 -103.142428    0.142391  14.995    0.00255    0.02617
        248    54 -102.999390 -103.112658    0.113267  14.995    0.00235    0.02427
        249    53 -102.999501 -103.087526    0.088025  14.995    0.00249    0.02180
        250    54 -102.999337 -103.049656    0.050319  14.995    0.00253    0.02077
        251    49 -102.999517 -103.019248    0.019732  14.995    0.00257    0.02092
        252    49 -102.999484 -102.992003    0.007480  14.995    0.00226    0.02169
        253    54 -102.999667 -102.969688    0.029979  14.995    0.00209    0.02133
        254    54 -102.999986 -102.951485    0.048501  14.995    0.00201    0.02120
        255    54 -103.000394 -102.940167    0.060226  14.995    0.00203    0.01999
        256    53 -103.000800 -102.932791    0.068009  14.995    0.00200    0.01934
        257    54 -103.001177 -102.929564    0.071614  14.995    0.00194    0.01888
        258    53 -103.001541 -102.933404    0.068136  14.995    0.00189    0.01774
        259    53 -103.001873 -102.941843    0.060031  14.995    0.00183    0.01636
        260    52 -103.002143 -102.956389    0.045753  14.995    0.00178    0.01506
        261    53 -103.002313 -102.974595    0.027718  14.995    0.00174    0.01375
        262    52 -103.002377 -102.994408    0.007969  14.995    0.00175    0.01252
        263    53 -103.002298 -103.014699    0.012401  14.995    0.00169    0.01200
        264    53 -103.002137 -103.034520    0.032382  14.995    0.00166    0.01199
        265    54 -103.001926 -103.051736    0.049810  14.995    0.00164    0.01227
        266    54 -103.001565 -103.065083    0.063518  14.995    0.00155    0.01251
        267    54 -103.001322 -103.076457    0.075135  14.995    0.00157    0.01220
        268    54 -103.001000 -103.080387    0.079387  14.995    0.00155    0.01192
        269    54 -103.000743 -103.081568    0.080825  14.995    0.00158    0.01169
        270    54 -103.000485 -103.078521    0.078036  14.995    0.00158    0.01147
        271    54 -103.000277 -103.073049    0.072772  14.995    0.00159    0.01120
        272    59 -103.000090 -103.064669    0.064579  14.995    0.00160    0.01076
        273    54 -102.999945 -103.054317    0.054372  14.995    0.00162    0.01010
        274    54 -102.999832 -103.042285    0.042453  14.995    0.00160    0.01173
        275    54 -102.999766 -103.034816    0.035050  14.995    0.00154    0.01034
        276    53 -102.999766 -103.020341    0.020576  14.995    0.00153    0.00929
        277    54 -102.999759 -103.009430    0.009671  14.995    0.00149    0.00827
        278    58 -102.999785 -102.998087    0.001698  14.995    0.00147    0.00723
        279    53 -102.999844 -102.989896    0.009948  14.995    0.00145    0.00656
        280    54 -102.999886 -102.982487    0.017399  14.995    0.00140    0.00642
        281    58 -102.999940 -102.977771    0.022170  14.995    0.00135    0.00663
        282    58 -103.000012 -102.974439    0.025573  14.995    0.00132    0.00691
        283    53 -103.000090 -102.972645    0.027445  14.995    0.00130    0.00716
        284    53 -103.000185 -102.972089    0.028096  14.995    0.00128    0.00733
        285    52 -103.000288 -102.972716    0.027572  14.995    0.00127    0.00738
        286    53 -103.000390 -102.974367    0.026023  14.995    0.00126    0.00727
        287    58 -103.000486 -102.976952    0.023534  14.995    0.00126    0.00696
        288    53 -103.000571 -102.980237    0.020334  14.995    0.00126    0.00649
        289    54 -103.000638 -102.984135    0.016503  14.995    0.00126    0.00596
        290    52 -103.000686 -102.988400    0.012286  14.995    0.00126    0.00546
        291    58 -103.000715 -102.992946    0.007769  14.995    0.00126    0.00509
        292    54 -103.000712 -102.997568    0.003145  14.995    0.00125    0.00493
        293    58 -103.000682 -103.002388    0.001706  14.995    0.00124    0.00502
        294    58 -103.000668 -103.007108    0.006440  14.995    0.00122    0.00518
        295    58 -103.000613 -103.010982    0.010369  14.995    0.00122    0.00545
        296    58 -103.000533 -103.014521    0.013988  14.995    0.00122    0.00583
        297    53 -103.000482 -103.017551    0.017069  14.995    0.00120    0.00606
        298    58 -103.000395 -103.019089    0.018695  14.995    0.00120    0.00625
        299    52 -103.000316 -103.019963    0.019648  14.995    0.00120    0.00636
        300    53 -103.000223 -103.019671    0.019448  14.995    0.00120    0.00639
        301    57 -103.000135 -103.018504    0.018369  14.995    0.00119    0.00634
        302    58 -103.000048 -103.016368    0.016320  14.995    0.00119    0.00625
        303    58 -102.999971 -103.013471    0.013500  14.995    0.00119    0.00613
        304    53 -102.999906 -103.009881    0.009976  14.995    0.00118    0.00602
        305    52 -102.999857 -103.005798    0.005941  14.995    0.00118    0.00595
        306    59 -102.999827 -103.001397    0.001570  14.995    0.00117    0.00597
        307    53 -102.999812 -102.997288    0.002524  14.995    0.00116    0.00604
        308    52 -102.999813 -102.993066    0.006747  14.995    0.00115    0.00616
        309    54 -102.999832 -102.988974    0.010858  14.995    0.00114    0.00633
        310    53 -102.999867 -102.985230    0.014638  14.995    0.00114    0.00654
        311    53 -102.999916 -102.982133    0.017782  14.995    0.00111    0.00734
        312    53 -102.999963 -102.982627    0.017336  14.995    0.00108    0.00737
        313    53 -103.000004 -102.983892    0.016112  14.995    0.00105    0.00895
        314    54 -103.000013 -102.988800    0.011213  14.995    0.00104    0.00833
        315    54 -103.000014 -102.988689    0.011326  14.995    0.00102    0.00853
        316    53 -102.999976 -102.993577    0.006400  14.995    0.00102    0.00831
        317    53 -102.999933 -102.995661    0.004272  14.995    0.00102    0.00817
        318    53 -102.999877 -102.997907    0.001970  14.995    0.00101    0.00794
        319    53 -102.999815 -102.999344    0.000471  14.995    0.00099    0.00846
        320    53 -102.999750 -103.003829    0.004078  14.995    0.00098    0.00788
        321    48 -102.999684 -103.005203    0.005518  14.995    0.00096    0.00749
        322    47 -102.999619 -103.007160    0.007541  14.995    0.00094    0.00727
        323    47 -102.999563 -103.007224    0.007662  14.995    0.00092    0.00754
        324    53 -102.999516 -103.008295    0.008779  14.995    0.00090    0.00734
        325    49 -102.999475 -103.007286    0.007811  14.995    0.00089    0.00726
        326    53 -102.999438 -103.007488    0.008050  14.995    0.00088    0.00729
        327    53 -102.999401 -103.007079    0.007678  14.995    0.00088    0.00730
        328    53 -102.999361 -103.006466    0.007105  14.995    0.00087    0.00724
        329    53 -102.999319 -103.005830    0.006511  14.995    0.00086    0.00716
        330    53 -102.999277 -103.005040    0.005763  14.995    0.00084    0.00709
        331    53 -102.999237 -103.004123    0.004886  14.995    0.00083    0.00703
        332    47 -102.999200 -103.003421    0.004221  14.995    0.00082    0.00732
        333    55 -102.999174 -103.004004    0.004829  14.995    0.00081    0.00711
        334    53 -102.999144 -103.002940    0.003796  14.995    0.00078    0.00718
        335    56 -102.999118 -103.004658    0.005540  14.995    0.00071    0.00695
        336    55 -102.999080 -103.004913    0.005833  14.995    0.00064    0.00758
        337    54 -102.999048 -103.008546    0.009498  14.995    0.00059    0.00729
        338    58 -102.998994 -103.009005    0.010012  14.995    0.00058    0.00686
        339    56 -102.998939 -103.010598    0.011658  14.995    0.00058    0.00648
        340    60 -102.998882 -103.010157    0.011276  14.995    0.00058    0.00627
        341    59 -102.998826 -103.009506    0.010680  14.995    0.00058    0.00614
        342    60 -102.998772 -103.007883    0.009111  14.995    0.00058    0.00597
        343    61 -102.998723 -103.006302    0.007579  14.995    0.00057    0.00579
        344    60 -102.998680 -103.004939    0.006260  14.995    0.00056    0.00559
        345    60 -102.998643 -103.003354    0.004711  14.995    0.00054    0.00545
        346    56 -102.998616 -103.002394    0.003778  14.995    0.00052    0.00524
        347    58 -102.998593 -103.000838    0.002245  14.995    0.00051    0.00510
        348    60 -102.998579 -102.998958    0.000379  14.995    0.00050    0.00501
        349    59 -102.998574 -102.997150    0.001425  14.995    0.00049    0.00492
        350    60 -102.998579 -102.995227    0.003352  14.995    0.00048    0.00494
        351    60 -102.998595 -102.994167    0.004428  14.995    0.00047    0.00485
        352    53 -102.998606 -102.992422    0.006184  14.995    0.00046    0.00482
        353    55 -102.998621 -102.991074    0.007547  14.995    0.00046    0.00479
        354    60 -102.998644 -102.989825    0.008819  14.995    0.00046    0.00474
        355    56 -102.998673 -102.988873    0.009800  14.995    0.00046    0.00469
        356    54 -102.998706 -102.988085    0.010620  14.995    0.00046    0.00464
        357    55 -102.998740 -102.987583    0.011157  14.995    0.00046    0.00458
        358    53 -102.998774 -102.987323    0.011452  14.995    0.00046    0.00451
        359    49 -102.998808 -102.987349    0.011460  14.995    0.00045    0.00443
        360    48 -102.998840 -102.987650    0.011190  14.995    0.00045    0.00434
        361    52 -102.998866 -102.988226    0.010639  14.995    0.00044    0.00425
        362    55 -102.998873 -102.989080    0.009793  14.995    0.00044    0.00419
        363    50 -102.998896 -102.990352    0.008544  14.995    0.00043    0.00409
        364    52 -102.998891 -102.991424    0.007467  14.995    0.00045    0.00403
        365    49 -102.998901 -102.992887    0.006014  14.995    0.00043    0.00396
        366    49 -102.998887 -102.994104    0.004783  14.995    0.00044    0.00391
        367    49 -102.998891 -102.995538    0.003353  14.995    0.00043    0.00383
        368    49 -102.998857 -102.996571    0.002286  14.995    0.00044    0.00381
        369    47 -102.998859 -102.998033    0.000826  14.995    0.00043    0.00372
        370    53 -102.998832 -102.998840    0.000009  14.995    0.00043    0.00365
        371    49 -102.998816 -102.999824    0.001008  14.995    0.00042    0.00360
        372    55 -102.998789 -103.000539    0.001750  14.995    0.00042    0.00355
        373    55 -102.998766 -103.001178    0.002412  14.995    0.00041    0.00351
        374    56 -102.998738 -103.001608    0.002870  14.995    0.00041    0.00346
        375    55 -102.998712 -103.001885    0.003174  14.995    0.00040    0.00342
        376    56 -102.998685 -103.001994    0.003309  14.995    0.00040    0.00338
        377    55 -102.998660 -103.001969    0.003309  14.995    0.00039    0.00333
        378    55 -102.998594 -103.001797    0.003204  14.995    0.00037    0.00341
        379    56 -102.998591 -103.002129    0.003538  14.995    0.00036    0.00335
        380    56 -102.998551 -103.001817    0.003265  14.995    0.00036    0.00332
        381    56 -102.998535 -103.001750    0.003215  14.995    0.00036    0.00361
        382    55 -102.998514 -103.002708    0.004193  14.995    0.00037    0.00354
        383    56 -102.998493 -103.002639    0.004146  14.995    0.00038    0.00342
        384    50 -102.998468 -103.002923    0.004455  14.995    0.00039    0.00330
        385    50 -102.998444 -103.002562    0.004118  14.995    0.00040    0.00323
        386    48 -102.998423 -103.002107    0.003684  14.995    0.00040    0.00317
        387    49 -102.998408 -103.001343    0.002934  14.995    0.00040    0.00310
        388    49 -102.998399 -103.000616    0.002218  14.995    0.00039    0.00305
        389    48 -102.998394 -102.999948    0.001553  14.995    0.00039    0.00302
        390    51 -102.998393 -102.999482    0.001089  14.995    0.00038    0.00297
        391    48 -102.998393 -102.999177    0.000784  14.995    0.00038    0.00291
        392    49 -102.998393 -102.998994    0.000601  14.995    0.00037    0.00284
        393    49 -102.998392 -102.998845    0.000453  14.995    0.00037    0.00277
        394    48 -102.998390 -102.998671    0.000281  14.995    0.00037    0.00271
        395    48 -102.998388 -102.998585    0.000197  14.995    0.00036    0.00264
        396    48 -102.998382 -102.998401    0.000019  14.995    0.00036    0.00259
        397    49 -102.998375 -102.998092    0.000283  14.995    0.00036    0.00255
        398    49 -102.998368 -102.997675    0.000692  14.995    0.00035    0.00252
        399    49 -102.998361 -102.997177    0.001185  14.995    0.00035    0.00250

        ==> Orbital Optimization <==

            Jacobi Optimization converged.
            Total energy change: -9.818693e-04

        400    49 -102.999340 -103.456209    0.456869   2.071    0.00034    0.00248
        401    77 -102.986403 -103.377222    0.390819   2.071    0.02291    0.07517
        402    46 -102.976137 -103.340635    0.364498   2.071    0.02457    0.05138
        403    47 -102.969552 -103.252211    0.282659   2.071    0.02439    0.03875
        404    38 -102.962724 -103.157332    0.194609   2.071    0.02226    0.03115
        405    37 -102.962958 -103.102913    0.139955   2.071    0.02069    0.02910
        406    41 -102.963958 -103.044608    0.080651   2.071    0.01910    0.03015
        407    42 -102.967392 -102.992112    0.024720   2.071    0.01819    0.03052
        408    42 -102.969044 -102.950804    0.018240   2.071    0.01632    0.03009
        409    42 -102.970094 -102.922463    0.047630   2.071    0.01416    0.02892
        410    42 -102.973317 -102.905322    0.067995   2.071    0.01352    0.02619
        411    37 -102.975885 -102.898735    0.077150   2.071    0.01281    0.02377
        412    41 -102.980607 -102.889952    0.090655   2.071    0.01069    0.02375
        413    34 -102.984527 -102.871915    0.112613   2.071    0.00858    0.02416
        414    37 -102.988783 -102.854991    0.133793   2.071    0.00734    0.02329
        415    42 -102.992863 -102.845060    0.147802   2.071    0.00679    0.02210
        416    41 -102.995553 -102.845356    0.150197   2.071    0.00745    0.02107
        417    42 -102.998452 -102.856360    0.142093   2.071    0.00829    0.01977
        418    41 -103.001984 -102.872101    0.129883   2.071    0.00774    0.01889
        419    41 -103.006527 -102.887228    0.119300   2.071    0.00609    0.01808
        420    42 -103.009021 -102.905474    0.103546   2.071    0.00604    0.01595
        421    41 -103.011060 -102.925426    0.085634   2.071    0.00613    0.01383
        422    40 -103.012713 -102.944314    0.068399   2.071    0.00640    0.01109
        423    41 -103.013067 -102.962038    0.051029   2.071    0.00704    0.00809
        424    41 -103.013379 -102.982285    0.031093   2.071    0.00723    0.00554
        425    42 -103.013084 -103.003507    0.009577   2.071    0.00718    0.00414
        426    42 -103.012066 -103.023443    0.011378   2.071    0.00666    0.00494
        427    42 -103.010776 -103.041688    0.030912   2.071    0.00576    0.00677
        428    41 -103.009173 -103.056567    0.047394   2.071    0.00466    0.00851
        429    41 -103.007287 -103.068956    0.061669   2.071    0.00357    0.00971
        430    41 -103.005404 -103.076033    0.070629   2.071    0.00299    0.01036
        431    35 -103.003379 -103.078699    0.075320   2.071    0.00309    0.01045
        432    35 -103.000818 -103.077159    0.076341   2.071    0.00259    0.01025
        433    42 -102.999233 -103.073418    0.074185   2.071    0.00345    0.00944
        434    41 -102.997660 -103.064976    0.067316   2.071    0.00430    0.00827
        435    41 -102.996331 -103.053062    0.056731   2.071    0.00488    0.00681
        436    41 -102.994421 -103.038889    0.044468   2.071    0.00449    0.00542
        437    41 -102.994382 -103.024906    0.030524   2.071    0.00483    0.00437
        438    41 -102.992960 -103.011096    0.018136   2.071    0.00366    0.00369
        439    41 -102.993634 -102.999142    0.005507   2.071    0.00365    0.00320
        440    42 -102.994063 -102.986874    0.007189   2.071    0.00328    0.00330
        441    42 -102.995033 -102.974998    0.020035   2.071    0.00289    0.00393
        442    42 -102.995977 -102.965275    0.030701   2.071    0.00229    0.00498
        443    38 -102.997230 -102.958944    0.038285   2.071    0.00175    0.00547
        444    42 -102.998501 -102.953612    0.044889   2.071    0.00135    0.00572
        445    41 -102.999821 -102.951569    0.048252   2.071    0.00123    0.00579
        446    42 -103.001041 -102.952480    0.048561   2.071    0.00136    0.00566
        447    42 -103.002191 -102.955824    0.046367   2.071    0.00162    0.00535
        448    41 -103.003171 -102.961053    0.042118   2.071    0.00188    0.00490
        449    41 -103.003954 -102.967484    0.036470   2.071    0.00210    0.00433
        450    41 -103.004292 -102.974890    0.029402   2.071    0.00237    0.00369
        451    41 -103.004690 -102.983258    0.021432   2.071    0.00244    0.00294
        452    41 -103.004734 -102.991600    0.013134   2.071    0.00252    0.00218
        453    41 -103.004765 -103.000102    0.004663   2.071    0.00237    0.00168
        454    41 -103.004566 -103.007129    0.002562   2.071    0.00220    0.00167
        455    41 -103.004150 -103.013020    0.008871   2.071    0.00198    0.00207
        456    36 -103.003527 -103.018125    0.014598   2.071    0.00174    0.00260
        457    40 -103.002844 -103.022384    0.019540   2.071    0.00144    0.00310
        458    37 -103.002048 -103.025711    0.023663   2.071    0.00115    0.00342
        459    37 -103.001228 -103.027540    0.026312   2.071    0.00093    0.00360
        460    33 -103.000385 -103.027877    0.027491   2.071    0.00083    0.00362
        461    40 -102.999606 -103.026896    0.027290   2.071    0.00087    0.00350
        462    41 -102.998929 -103.024826    0.025897   2.071    0.00101    0.00324
        463    42 -102.998354 -103.021346    0.022993   2.071    0.00118    0.00285
        464    42 -102.997917 -103.017163    0.019246   2.071    0.00133    0.00241
        465    41 -102.997643 -103.012487    0.014844   2.071    0.00144    0.00194
        466    42 -102.997493 -103.007407    0.009914   2.071    0.00148    0.00144
        467    42 -102.997465 -103.002309    0.004844   2.071    0.00137    0.00166
        468    35 -102.997480 -102.999343    0.001863   2.071    0.00120    0.00155
        469    41 -102.997787 -102.995829    0.001958   2.071    0.00111    0.00151
        470    41 -102.998061 -102.993117    0.004944   2.071    0.00099    0.00175
        471    41 -102.998394 -102.991303    0.007091   2.071    0.00093    0.00169
        472    42 -102.998700 -102.989780    0.008919   2.071    0.00091    0.00173
        473    42 -102.999039 -102.988700    0.010338   2.071    0.00091    0.00171
        474    37 -102.999361 -102.987918    0.011444   2.071    0.00090    0.00173
        475    40 -102.999674 -102.987884    0.011790   2.071    0.00087    0.00161
        476    41 -102.999968 -102.987813    0.012155   2.071    0.00082    0.00154
        477    41 -103.000232 -102.988447    0.011785   2.071    0.00075    0.00149
        478    42 -103.000466 -102.989424    0.011042   2.071    0.00068    0.00145
        479    41 -103.000567 -102.990815    0.009751   2.071    0.00066    0.00139
        480    41 -103.000713 -102.992529    0.008184   2.071    0.00063    0.00136
        481    41 -103.000773 -102.994509    0.006265   2.071    0.00064    0.00123
        482    41 -103.000817 -102.995934    0.004883   2.071    0.00066    0.00109
        483    41 -103.000813 -102.997280    0.003534   2.071    0.00067    0.00094
        484    41 -103.000794 -102.998290    0.002504   2.071    0.00067    0.00082
        485    40 -103.000747 -102.999276    0.001471   2.071    0.00066    0.00073
        486    37 -103.000685 -103.000205    0.000480   2.071    0.00065    0.00068
        487    36 -103.000608 -103.001183    0.000574   2.071    0.00063    0.00066
        488    37 -103.000517 -103.002204    0.001687   2.071    0.00062    0.00066
        489    40 -103.000411 -103.003229    0.002818   2.071    0.00059    0.00066
        490    40 -103.000294 -103.003986    0.003693   2.071    0.00056    0.00071
        491    42 -103.000170 -103.004563    0.004393   2.071    0.00052    0.00077
        492    40 -103.000046 -103.004863    0.004817   2.071    0.00047    0.00084
        493    41 -102.999921 -103.004987    0.005066   2.071    0.00044    0.00089
        494    42 -102.999800 -103.004894    0.005093   2.071    0.00042    0.00092
        495    42 -102.999687 -103.004664    0.004977   2.071    0.00043    0.00093
        496    41 -102.999581 -103.004327    0.004745   2.071    0.00045    0.00090
        497    41 -102.999485 -103.003922    0.004437   2.071    0.00047    0.00086
        498    41 -102.999399 -103.003463    0.004064   2.071    0.00050    0.00080
        499    35 -102.999323 -103.002956    0.003634   2.071    0.00052    0.00072
        500    35 -102.999260 -103.002389    0.003129   2.071    0.00053    0.00064
        501    40 -102.999212 -103.001801    0.002589   2.071    0.00053    0.00056
        502    40 -102.999177 -103.001154    0.001978   2.071    0.00053    0.00047
        503    41 -102.999156 -103.000521    0.001365   2.071    0.00052    0.00040
        504    42 -102.999148 -102.999869    0.000721   2.071    0.00051    0.00033
        505    42 -102.999153 -102.999215    0.000062   2.071    0.00049    0.00029
        506    42 -102.999173 -102.998558    0.000615   2.071    0.00047    0.00029
        507    42 -102.999206 -102.997930    0.001276   2.071    0.00045    0.00032
        508    42 -102.999252 -102.997350    0.001903   2.071    0.00043    0.00037
        509    42 -102.999310 -102.996842    0.002468   2.071    0.00041    0.00042
        510    42 -102.999379 -102.996418    0.002960   2.071    0.00039    0.00047
        511    41 -102.999455 -102.996086    0.003369   2.071    0.00037    0.00051
        512    42 -102.999536 -102.995847    0.003688   2.071    0.00036    0.00054
        513    42 -102.999615 -102.995781    0.003834   2.071    0.00035    0.00056
        514    42 -102.999693 -102.995768    0.003925   2.071    0.00035    0.00056
        515    41 -102.999772 -102.995790    0.003982   2.071    0.00035    0.00055
        516    41 -102.999849 -102.995898    0.003951   2.071    0.00035    0.00052
        517    40 -102.999923 -102.996082    0.003842   2.071    0.00036    0.00049
        518    41 -102.999993 -102.996364    0.003629   2.071    0.00037    0.00044
        519    37 -103.000056 -102.996735    0.003321   2.071    0.00038    0.00039
        520    37 -103.000109 -102.997191    0.002918   2.071    0.00039    0.00033
        521    38 -103.000147 -102.997732    0.002415   2.071    0.00039    0.00027
        522    40 -103.000170 -102.998343    0.001827   2.071    0.00039    0.00022
        523    41 -103.000173 -102.998964    0.001208   2.071    0.00039    0.00018
        524    41 -103.000158 -102.999561    0.000598   2.071    0.00038    0.00018
        525    42 -103.000127 -103.000129    0.000002   2.071    0.00037    0.00020
        526    41 -103.000082 -103.000599    0.000516   2.071    0.00036    0.00024
        527    41 -103.000026 -103.001003    0.000977   2.071    0.00035    0.00028
        528    40 -102.999964 -103.001313    0.001350   2.071    0.00034    0.00031
        529    40 -102.999896 -103.001546    0.001650   2.071    0.00033    0.00034
        530    41 -102.999827 -103.001689    0.001862   2.071    0.00032    0.00035
        531    41 -102.999759 -103.001750    0.001992   2.071    0.00031    0.00037
        532    41 -102.999695 -103.001821    0.002126   2.071    0.00030    0.00041
        533    41 -102.999633 -103.001918    0.002285   2.071    0.00031    0.00043
        534    41 -102.999568 -103.001904    0.002335   2.071    0.00032    0.00042
        535    41 -102.999506 -103.001898    0.002392   2.071    0.00033    0.00042
        536    41 -102.999447 -103.001801    0.002354   2.071    0.00034    0.00040
        537    40 -102.999393 -103.001649    0.002257   2.071    0.00034    0.00037
        538    40 -102.999343 -103.001428    0.002085   2.071    0.00035    0.00034
        539    40 -102.999301 -103.001163    0.001862   2.071    0.00035    0.00032
        540    40 -102.999262 -103.000867    0.001606   2.071    0.00034    0.00029
        541    40 -102.999231 -103.000563    0.001332   2.071    0.00034    0.00025
        542    40 -102.999215 -103.000243    0.001028   2.071    0.00034    0.00022
        543    42 -102.999204 -102.999904    0.000700   2.071    0.00034    0.00019
        544    42 -102.999205 -102.999562    0.000358   2.071    0.00034    0.00016
        545    42 -102.999213 -102.999219    0.000006   2.071    0.00034    0.00015
        546    42 -102.999230 -102.998882    0.000348   2.071    0.00034    0.00015
        547    42 -102.999254 -102.998561    0.000694   2.071    0.00034    0.00016
        548    42 -102.999285 -102.998265    0.001020   2.071    0.00034    0.00019
        549    42 -102.999320 -102.998004    0.001316   2.071    0.00033    0.00021
        550    42 -102.999359 -102.997788    0.001572   2.071    0.00033    0.00023
        551    42 -102.999402 -102.997621    0.001780   2.071    0.00032    0.00024
        552    41 -102.999442 -102.997508    0.001934   2.071    0.00031    0.00025
        553    41 -102.999484 -102.997460    0.002024   2.071    0.00030    0.00026
        554    40 -102.999528 -102.997459    0.002069   2.071    0.00029    0.00026
        555    40 -102.999569 -102.997501    0.002069   2.071    0.00028    0.00026
        556    40 -102.999608 -102.997590    0.002017   2.071    0.00027    0.00026
        557    40 -102.999642 -102.997716    0.001925   2.071    0.00027    0.00025
        558    42 -102.999670 -102.997874    0.001797   2.071    0.00026    0.00023
        559    41 -102.999694 -102.998056    0.001638   2.071    0.00026    0.00021
        560    42 -102.999704 -102.998255    0.001449   2.071    0.00026    0.00020
        561    41 -102.999723 -102.998485    0.001238   2.071    0.00026    0.00017
        562    42 -102.999727 -102.998693    0.001034   2.071    0.00025    0.00015
        563    42 -102.999731 -102.998918    0.000813   2.071    0.00025    0.00013
        564    47 -102.999727 -102.999135    0.000592   2.071    0.00025    0.00012
        565    47 -102.999721 -102.999349    0.000372   2.071    0.00025    0.00011
        566    47 -102.999710 -102.999552    0.000158   2.071    0.00025    0.00010
        567    47 -102.999694 -102.999742    0.000049   2.071    0.00025    0.00011
        568    47 -102.999671 -102.999918    0.000247   2.071    0.00025    0.00012
        569    42 -102.999653 -103.000081    0.000428   2.071    0.00025    0.00014
        570    40 -102.999627 -103.000205    0.000578   2.071    0.00025    0.00015
        571    42 -102.999602 -103.000312    0.000710   2.071    0.00025    0.00016
        572    40 -102.999574 -103.000386    0.000813   2.071    0.00025    0.00017
        573    40 -102.999546 -103.000435    0.000889   2.071    0.00025    0.00017
        574    40 -102.999517 -103.000452    0.000935   2.071    0.00025    0.00017
        575    40 -102.999489 -103.000440    0.000951   2.071    0.00025    0.00017
        576    41 -102.999463 -103.000399    0.000937   2.071    0.00025    0.00017
        577    41 -102.999438 -103.000332    0.000894   2.071    0.00025    0.00016
        578    41 -102.999416 -103.000240    0.000824   2.071    0.00025    0.00016
        579    41 -102.999397 -103.000127    0.000730   2.071    0.00026    0.00015
        580    41 -102.999381 -102.999996    0.000614   2.071    0.00026    0.00013
        581    42 -102.999370 -102.999851    0.000482   2.071    0.00026    0.00012
        582    41 -102.999362 -102.999697    0.000335   2.071    0.00026    0.00011
        583    42 -102.999359 -102.999540    0.000182   2.071    0.00026    0.00010
        584    47 -102.999359 -102.999383    0.000024   2.071    0.00026    0.00009
        585    45 -102.999363 -102.999230    0.000133   2.071    0.00025    0.00008
        586    47 -102.999371 -102.999087    0.000284   2.071    0.00025    0.00008
        587    47 -102.999382 -102.998955    0.000426   2.071    0.00025    0.00008
        588    48 -102.999395 -102.998839    0.000555   2.071    0.00025    0.00008
        589    47 -102.999410 -102.998740    0.000670   2.071    0.00025    0.00009
        590    46 -102.999426 -102.998659    0.000767   2.071    0.00024    0.00010
        591    42 -102.999444 -102.998598    0.000846   2.071    0.00024    0.00010
        592    42 -102.999461 -102.998558    0.000903   2.071    0.00024    0.00011
        593    42 -102.999479 -102.998536    0.000943   2.071    0.00024    0.00012
        594    42 -102.999496 -102.998534    0.000962   2.071    0.00023    0.00012
        595    42 -102.999512 -102.998548    0.000964   2.071    0.00023    0.00012
        596    42 -102.999527 -102.998579    0.000949   2.071    0.00023    0.00012
        597    42 -102.999541 -102.998624    0.000917   2.071    0.00023    0.00012
        598    42 -102.999553 -102.998681    0.000872   2.071    0.00022    0.00011
        599    42 -102.999563 -102.998749    0.000814   2.071    0.00022    0.00011

        ==> Orbital Optimization <==

            Jacobi Optimization converged.
            Total energy change: -1.551055e-05

        600    42 -102.999587 -103.042166    0.042580   4.618    0.00022    0.00010
        601    75 -102.999410 -103.024953    0.025543   4.618    0.00130    0.00852
        602    48 -102.998935 -103.024046    0.025110   4.618    0.00135    0.00559
        603    42 -102.998586 -103.019099    0.020513   4.618    0.00135    0.00410
        604    42 -102.998450 -103.012317    0.013867   4.618    0.00134    0.00293
        605    42 -102.998512 -103.006642    0.008130   4.618    0.00122    0.00278
        606    38 -102.998618 -103.001507    0.002889   4.618    0.00107    0.00337
        607    42 -102.998709 -102.997825    0.000884   4.618    0.00092    0.00384
        608    42 -102.998769 -102.995383    0.003387   4.618    0.00080    0.00394
        609    42 -102.998819 -102.994136    0.004682   4.618    0.00077    0.00360
        610    46 -102.998917 -102.993595    0.005323   4.618    0.00077    0.00296
        611    47 -102.998991 -102.993140    0.005851   4.618    0.00073    0.00239
        612    47 -102.999079 -102.992937    0.006142   4.618    0.00064    0.00212
        613    47 -102.999159 -102.992546    0.006614   4.618    0.00053    0.00215
        614    47 -102.999211 -102.992261    0.006950   4.618    0.00043    0.00225
        615    42 -102.999293 -102.992015    0.007278   4.618    0.00041    0.00228
        616    43 -102.999385 -102.991823    0.007562   4.618    0.00042    0.00228
        617    44 -102.999463 -102.992322    0.007141   4.618    0.00045    0.00198
        618    42 -102.999542 -102.992243    0.007299   4.618    0.00046    0.00169
        619    43 -102.999613 -102.992778    0.006835   4.618    0.00043    0.00150
        620    45 -102.999684 -102.993284    0.006400   4.618    0.00040    0.00142
        621    47 -102.999759 -102.994116    0.005643   4.618    0.00036    0.00140
        622    47 -102.999829 -102.994930    0.004900   4.618    0.00033    0.00137
        623    49 -102.999884 -102.995906    0.003978   4.618    0.00031    0.00131
        624    48 -102.999920 -102.996969    0.002951   4.618    0.00031    0.00122
        625    48 -102.999933 -102.998129    0.001804   4.618    0.00030    0.00114
        626    48 -102.999923 -102.999267    0.000656   4.618    0.00029    0.00111
        627    47 -102.999885 -103.000311    0.000427   4.618    0.00026    0.00111
        628    41 -102.999829 -103.001207    0.001378   4.618    0.00024    0.00110
        629    42 -102.999768 -103.001873    0.002105   4.618    0.00025    0.00105
        630    47 -102.999691 -103.002248    0.002557   4.618    0.00026    0.00096
        631    47 -102.999628 -103.002457    0.002828   4.618    0.00029    0.00083
        632    48 -102.999571 -103.002413    0.002842   4.618    0.00031    0.00070
        633    48 -102.999525 -103.002248    0.002723   4.618    0.00031    0.00063
        634    48 -102.999489 -103.002013    0.002524   4.618    0.00029    0.00064
        635    49 -102.999464 -103.001770    0.002307   4.618    0.00027    0.00070
        636    48 -102.999447 -103.001547    0.002100   4.618    0.00024    0.00076
        637    47 -102.999435 -103.001363    0.001928   4.618    0.00022    0.00080
        638    42 -102.999427 -103.001284    0.001857   4.618    0.00020    0.00082
        639    41 -102.999419 -103.001272    0.001853   4.618    0.00020    0.00079
        640    47 -102.999407 -103.001121    0.001714   4.618    0.00020    0.00076
        641    47 -102.999394 -103.001025    0.001632   4.618    0.00021    0.00073
        642    47 -102.999379 -103.000863    0.001484   4.618    0.00021    0.00069
        643    47 -102.999364 -103.000704    0.001340   4.618    0.00022    0.00062
        644    47 -102.999350 -103.000516    0.001166   4.618    0.00023    0.00054
        645    47 -102.999338 -103.000330    0.000992   4.618    0.00023    0.00044
        646    47 -102.999328 -103.000134    0.000806   4.618    0.00024    0.00035
        647    47 -102.999321 -102.999932    0.000611   4.618    0.00023    0.00029
        648    47 -102.999318 -102.999717    0.000399   4.618    0.00023    0.00028
        649    47 -102.999317 -102.999494    0.000176   4.618    0.00022    0.00032
        650    46 -102.999320 -102.999261    0.000059   4.618    0.00020    0.00038
        651    47 -102.999325 -102.999021    0.000304   4.618    0.00019    0.00042
        652    47 -102.999332 -102.998777    0.000555   4.618    0.00019    0.00045
        653    47 -102.999338 -102.998527    0.000811   4.618    0.00018    0.00046
        654    47 -102.999350 -102.998291    0.001058   4.618    0.00017    0.00047
        655    47 -102.999363 -102.998060    0.001303   4.618    0.00017    0.00047
        656    41 -102.999380 -102.997860    0.001520   4.618    0.00017    0.00046
        657    41 -102.999399 -102.997624    0.001775   4.618    0.00017    0.00045
        658    42 -102.999420 -102.997432    0.001988   4.618    0.00017    0.00043
        659    41 -102.999443 -102.997258    0.002185   4.618    0.00018    0.00041
        660    41 -102.999467 -102.997139    0.002329   4.618    0.00018    0.00039
        661    42 -102.999492 -102.997073    0.002419   4.618    0.00018    0.00037
        662    42 -102.999517 -102.997084    0.002433   4.618    0.00017    0.00035
        663    42 -102.999540 -102.997196    0.002344   4.618    0.00017    0.00034
        664    42 -102.999562 -102.997383    0.002180   4.618    0.00017    0.00032
        665    41 -102.999581 -102.997622    0.001959   4.618    0.00016    0.00030
        666    47 -102.999596 -102.997932    0.001664   4.618    0.00016    0.00028
        667    47 -102.999606 -102.998286    0.001320   4.618    0.00016    0.00027
        668    47 -102.999610 -102.998679    0.000931   4.618    0.00015    0.00026
        669    47 -102.999609 -102.999091    0.000518   4.618    0.00015    0.00025
        670    47 -102.999602 -102.999509    0.000093   4.618    0.00015    0.00026
        671    47 -102.999590 -102.999913    0.000323   4.618    0.00015    0.00026
        672    47 -102.999573 -103.000286    0.000713   4.618    0.00015    0.00027
        673    47 -102.999551 -103.000611    0.001059   4.618    0.00015    0.00027
        674    47 -102.999527 -103.000875    0.001349   4.618    0.00015    0.00028
        675    47 -102.999500 -103.001071    0.001570   4.618    0.00015    0.00029
        676    47 -102.999473 -103.001193    0.001720   4.618    0.00015    0.00029
        677    47 -102.999446 -103.001243    0.001797   4.618    0.00015    0.00029
        678    47 -102.999419 -103.001223    0.001804   4.618    0.00015    0.00029
        679    47 -102.999395 -103.001140    0.001745   4.618    0.00016    0.00028
        680    47 -102.999374 -103.001002    0.001628   4.618    0.00016    0.00026
        681    47 -102.999355 -103.000815    0.001460   4.618    0.00016    0.00025
        682    47 -102.999341 -103.000591    0.001250   4.618    0.00016    0.00023
        683    47 -102.999331 -103.000337    0.001007   4.618    0.00016    0.00022
        684    47 -102.999324 -103.000065    0.000741   4.618    0.00016    0.00021
        685    47 -102.999322 -102.999784    0.000462   4.618    0.00016    0.00020
        686    47 -102.999324 -102.999503    0.000180   4.618    0.00016    0.00020
        687    47 -102.999329 -102.999233    0.000096   4.618    0.00016    0.00020
        688    47 -102.999337 -102.998981    0.000357   4.618    0.00016    0.00020
        689    47 -102.999348 -102.998755    0.000593   4.618    0.00016    0.00020
        690    47 -102.999361 -102.998562    0.000800   4.618    0.00016    0.00021
        691    47 -102.999376 -102.998406    0.000970   4.618    0.00016    0.00021
        692    46 -102.999391 -102.998291    0.001100   4.618    0.00016    0.00021
        693    47 -102.999407 -102.998220    0.001188   4.618    0.00016    0.00021
        694    47 -102.999423 -102.998190    0.001233   4.618    0.00016    0.00021
        695    47 -102.999438 -102.998202    0.001236   4.618    0.00016    0.00020
        696    47 -102.999452 -102.998252    0.001200   4.618    0.00015    0.00020
        697    47 -102.999464 -102.998336    0.001128   4.618    0.00015    0.00019
        698    47 -102.999474 -102.998449    0.001024   4.618    0.00015    0.00018
        699    47 -102.999481 -102.998586    0.000895   4.618    0.00015    0.00018
        700    47 -102.999486 -102.998735    0.000751   4.618    0.00015    0.00018
        701    47 -102.999488 -102.998893    0.000595   4.618    0.00015    0.00017
        702    47 -102.999488 -102.999050    0.000439   4.618    0.00014    0.00017
        703    47 -102.999486 -102.999198    0.000288   4.618    0.00014    0.00017
        704    47 -102.999482 -102.999333    0.000149   4.618    0.00014    0.00017
        705    47 -102.999476 -102.999452    0.000024   4.618    0.00014    0.00016
        706    47 -102.999469 -102.999552    0.000083   4.618    0.00014    0.00016
        707    47 -102.999461 -102.999633    0.000172   4.618    0.00014    0.00016
        708    47 -102.999453 -102.999695    0.000242   4.618    0.00014    0.00015
        709    47 -102.999444 -102.999764    0.000320   4.618    0.00014    0.00015
        710    47 -102.999435 -102.999778    0.000342   4.618    0.00014    0.00015
        711    47 -102.999427 -102.999788    0.000360   4.618    0.00014    0.00014
        712    47 -102.999420 -102.999766    0.000347   4.618    0.00014    0.00014
        713    47 -102.999413 -102.999735    0.000322   4.618    0.00014    0.00014
        714    47 -102.999407 -102.999687    0.000280   4.618    0.00014    0.00015
        715    47 -102.999402 -102.999633    0.000231   4.618    0.00014    0.00015
        716    47 -102.999398 -102.999573    0.000175   4.618    0.00014    0.00015
        717    47 -102.999395 -102.999510    0.000115   4.618    0.00014    0.00014
        718    47 -102.999394 -102.999447    0.000053   4.618    0.00014    0.00014
        719    47 -102.999394 -102.999385    0.000009   4.618    0.00014    0.00014
        720    47 -102.999394 -102.999327    0.000068   4.618    0.00014    0.00013
        721    47 -102.999395 -102.999274    0.000121   4.618    0.00014    0.00013
        722    49 -102.999397 -102.999228    0.000169   4.618    0.00014    0.00012
        723    49 -102.999400 -102.999191    0.000208   4.618    0.00014    0.00012
        724    52 -102.999402 -102.999162    0.000240   4.618    0.00014    0.00011
        725    52 -102.999405 -102.999142    0.000263   4.618    0.00014    0.00011
        726    48 -102.999408 -102.999128    0.000279   4.618    0.00014    0.00011
        727    52 -102.999410 -102.999121    0.000289   4.618    0.00014    0.00010
        728    53 -102.999412 -102.999120    0.000293   4.618    0.00014    0.00010
        729    48 -102.999415 -102.999122    0.000293   4.618    0.00014    0.00011
        730    49 -102.999416 -102.999127    0.000289   4.618    0.00014    0.00011
        731    49 -102.999418 -102.999135    0.000283   4.618    0.00014    0.00011
        732    53 -102.999419 -102.999144    0.000275   4.618    0.00014    0.00011
        733    49 -102.999421 -102.999156    0.000265   4.618    0.00014    0.00011
        734    48 -102.999421 -102.999167    0.000255   4.618    0.00014    0.00011
        735    49 -102.999422 -102.999180    0.000242   4.618    0.00013    0.00011
        736    52 -102.999423 -102.999193    0.000229   4.618    0.00013    0.00011
        737    49 -102.999423 -102.999208    0.000215   4.618    0.00013    0.00011
        738    49 -102.999423 -102.999223    0.000201   4.618    0.00013    0.00011
        739    47 -102.999423 -102.999239    0.000185   4.618    0.00013    0.00010
        740    53 -102.999423 -102.999255    0.000169   4.618    0.00013    0.00010
        741    49 -102.999423 -102.999273    0.000150   4.618    0.00013    0.00010
        742    47 -102.999423 -102.999294    0.000129   4.618    0.00013    0.00010
        743    47 -102.999423 -102.999317    0.000106   4.618    0.00013    0.00010
        744    53 -102.999422 -102.999337    0.000085   4.618    0.00013    0.00010
        745    53 -102.999421 -102.999355    0.000066   4.618    0.00013    0.00009
        746    52 -102.999420 -102.999370    0.000050   4.618    0.00013    0.00009
        747    52 -102.999419 -102.999383    0.000036   4.618    0.00013    0.00009
        748    52 -102.999417 -102.999393    0.000025   4.618    0.00013    0.00009
        749    52 -102.999416 -102.999402    0.000014   4.618    0.00013    0.00010
        750    53 -102.999415 -102.999409    0.000006   4.618    0.00013    0.00010
        751    53 -102.999413 -102.999414    0.000001   4.618    0.00013    0.00009
        752    53 -102.999412 -102.999417    0.000005   4.618    0.00013    0.00009
        753    53 -102.999411 -102.999418    0.000007   4.618    0.00013    0.00009
        754    53 -102.999409 -102.999417    0.000007   4.618    0.00013    0.00009
        755    53 -102.999408 -102.999413    0.000005   4.618    0.00013    0.00009
        756    52 -102.999407 -102.999407    0.000000   4.618    0.00013    0.00009
        757    52 -102.999406 -102.999400    0.000006   4.618    0.00013    0.00009
        758    52 -102.999405 -102.999390    0.000015   4.618    0.00013    0.00009
        759    52 -102.999404 -102.999378    0.000026   4.618    0.00013    0.00008
        760    53 -102.999403 -102.999364    0.000039   4.618    0.00013    0.00008
        761    53 -102.999403 -102.999348    0.000055   4.618    0.00013    0.00008
        762    53 -102.999402 -102.999330    0.000072   4.618    0.00013    0.00008
        763    52 -102.999402 -102.999311    0.000091   4.618    0.00013    0.00008
        764    53 -102.999401 -102.999294    0.000108   4.618    0.00013    0.00011
        765    49 -102.999400 -102.999316    0.000084   4.618    0.00013    0.00011
        766    47 -102.999399 -102.999270    0.000129   4.618    0.00013    0.00011
        767    47 -102.999398 -102.999266    0.000132   4.618    0.00013    0.00012
        768    48 -102.999397 -102.999240    0.000157   4.618    0.00013    0.00012
        769    47 -102.999396 -102.999234    0.000163   4.618    0.00013    0.00013
        770    47 -102.999396 -102.999220    0.000176   4.618    0.00013    0.00013
        771    47 -102.999396 -102.999216    0.000180   4.618    0.00013    0.00013
        772    48 -102.999395 -102.999211    0.000185   4.618    0.00013    0.00013
        773    47 -102.999395 -102.999209    0.000186   4.618    0.00013    0.00013
        774    47 -102.999395 -102.999207    0.000188   4.618    0.00013    0.00013
        775    47 -102.999394 -102.999203    0.000191   4.618    0.00013    0.00013
        776    47 -102.999394 -102.999197    0.000197   4.618    0.00013    0.00013
        777    48 -102.999394 -102.999188    0.000206   4.618    0.00013    0.00013
        778    48 -102.999395 -102.999178    0.000217   4.618    0.00013    0.00012
        779    48 -102.999395 -102.999166    0.000229   4.618    0.00013    0.00012
        780    49 -102.999396 -102.999154    0.000242   4.618    0.00013    0.00011
        781    49 -102.999398 -102.999143    0.000255   4.618    0.00013    0.00011
        782    49 -102.999399 -102.999134    0.000265   4.618    0.00013    0.00010
        783    49 -102.999401 -102.999129    0.000272   4.618    0.00013    0.00009
        784    49 -102.999403 -102.999128    0.000275   4.618    0.00013    0.00009
        785    52 -102.999405 -102.999133    0.000273   4.618    0.00013    0.00008
        786    52 -102.999407 -102.999144    0.000264   4.618    0.00013    0.00008
        787    55 -102.999409 -102.999160    0.000250   4.618    0.00013    0.00008
        788    55 -102.999411 -102.999181    0.000229   4.618    0.00013    0.00007
        789    55 -102.999411 -102.999208    0.000203   4.618    0.00013    0.00007
        790    54 -102.999412 -102.999239    0.000173   4.618    0.00013    0.00007
        791    55 -102.999412 -102.999273    0.000139   4.618    0.00013    0.00007
        792    55 -102.999412 -102.999308    0.000104   4.618    0.00013    0.00007
        793    55 -102.999411 -102.999343    0.000068   4.618    0.00013    0.00007
[...]
      19192    51 -109.020951 -109.020921    0.000030  19.404    0.00000    0.00000
      19193    51 -109.020951 -109.020921    0.000030  19.404    0.00000    0.00000
      19194    51 -109.020951 -109.020921    0.000030  19.404    0.00000    0.00000
      19195    51 -109.020951 -109.020921    0.000030  19.404    0.00000    0.00000
      19196    51 -109.020951 -109.020921    0.000030  19.404    0.00000    0.00000
      19197    51 -109.020951 -109.020921    0.000030  19.404    0.00000    0.00000
      19198    51 -109.020951 -109.020921    0.000030  19.404    0.00000    0.00000
      19199    51 -109.020951 -109.020921    0.000030  19.404    0.00000    0.00000

        ==> Orbital Optimization <==

            Jacobi Optimization converged.
            Total energy change: -2.478373e-11

      19200    51 -109.020951 -109.020961    0.000010  19.458    0.00000    0.00000
      19201    47 -109.020951 -109.020930    0.000020  19.458    0.00000    0.00001
      19202    51 -109.020950 -109.020926    0.000024  19.458    0.00000    0.00001
      19203    52 -109.020950 -109.020924    0.000027  19.458    0.00000    0.00001
      19204    52 -109.020950 -109.020922    0.000028  19.458    0.00000    0.00001
      19205    51 -109.020950 -109.020921    0.000029  19.458    0.00000    0.00001
      19206    51 -109.020950 -109.020921    0.000029  19.458    0.00000    0.00001
      19207    50 -109.020950 -109.020921    0.000029  19.458    0.00000    0.00001
      19208    51 -109.020950 -109.020922    0.000029  19.458    0.00000    0.00001
      19209    51 -109.020950 -109.020921    0.000029  19.458    0.00000    0.00001
      19210    51 -109.020950 -109.020921    0.000030  19.458    0.00000    0.00001
      19211    51 -109.020950 -109.020919    0.000031  19.458    0.00000    0.00000
      19212    51 -109.020950 -109.020918    0.000032  19.458    0.00000    0.00000
      19213    51 -109.020951 -109.020917    0.000033  19.458    0.00000    0.00000
      19214    52 -109.020951 -109.020917    0.000034  19.458    0.00000    0.00000
      19215    51 -109.020951 -109.020917    0.000034  19.458    0.00000    0.00000
      19216    51 -109.020951 -109.020917    0.000033  19.458    0.00000    0.00000
      19217    51 -109.020951 -109.020917    0.000033  19.458    0.00000    0.00000
      19218    51 -109.020951 -109.020918    0.000033  19.458    0.00000    0.00000
      19219    52 -109.020951 -109.020918    0.000032  19.458    0.00000    0.00000
      19220    52 -109.020951 -109.020918    0.000032  19.458    0.00000    0.00000
      19221    51 -109.020951 -109.020919    0.000032  19.458    0.00000    0.00000
      19222    51 -109.020951 -109.020919    0.000031  19.458    0.00000    0.00000
      19223    52 -109.020951 -109.020920    0.000031  19.458    0.00000    0.00000
      19224    51 -109.020951 -109.020921    0.000030  19.458    0.00000    0.00000
      19225    51 -109.020951 -109.020921    0.000029  19.458    0.00000    0.00000
      19226    51 -109.020951 -109.020922    0.000029  19.458    0.00000    0.00000
      19227    51 -109.020951 -109.020923    0.000028  19.458    0.00000    0.00000
      19228    51 -109.020951 -109.020923    0.000027  19.458    0.00000    0.00000
      19229    51 -109.020951 -109.020923    0.000027  19.458    0.00000    0.00000
      19230    51 -109.020951 -109.020924    0.000027  19.458    0.00000    0.00000
      19231    51 -109.020951 -109.020924    0.000027  19.458    0.00000    0.00000
      19232    51 -109.020951 -109.020924    0.000027  19.458    0.00000    0.00000
      19233    51 -109.020950 -109.020924    0.000027  19.458    0.00000    0.00000
      19234    51 -109.020950 -109.020924    0.000027  19.458    0.00000    0.00000
      19235    52 -109.020950 -109.020923    0.000027  19.458    0.00000    0.00000
      19236    51 -109.020950 -109.020923    0.000028  19.458    0.00000    0.00000
      19237    51 -109.020950 -109.020922    0.000028  19.458    0.00000    0.00000
      19238    51 -109.020950 -109.020922    0.000029  19.458    0.00000    0.00000
      19239    51 -109.020950 -109.020921    0.000029  19.458    0.00000    0.00000
      19240    51 -109.020950 -109.020920    0.000030  19.458    0.00000    0.00000
      19241    51 -109.020950 -109.020920    0.000031  19.458    0.00000    0.00000
      19242    51 -109.020950 -109.020919    0.000031  19.458    0.00000    0.00000
      19243    51 -109.020950 -109.020919    0.000032  19.458    0.00000    0.00000
      19244    52 -109.020950 -109.020918    0.000032  19.458    0.00000    0.00000
      19245    51 -109.020950 -109.020918    0.000032  19.458    0.00000    0.00000
      19246    51 -109.020950 -109.020918    0.000032  19.458    0.00000    0.00000
      19247    51 -109.020951 -109.020918    0.000032  19.458    0.00000    0.00000
      19248    51 -109.020951 -109.020918    0.000032  19.458    0.00000    0.00000
      19249    51 -109.020951 -109.020919    0.000032  19.458    0.00000    0.00000
      19250    51 -109.020951 -109.020919    0.000032  19.458    0.00000    0.00000
      19251    51 -109.020951 -109.020919    0.000031  19.458    0.00000    0.00000
      19252    52 -109.020951 -109.020920    0.000031  19.458    0.00000    0.00000
      19253    51 -109.020951 -109.020920    0.000030  19.458    0.00000    0.00000
      19254    51 -109.020951 -109.020921    0.000030  19.458    0.00000    0.00000
      19255    50 -109.020951 -109.020921    0.000029  19.458    0.00000    0.00000
      19256    52 -109.020951 -109.020922    0.000029  19.458    0.00000    0.00000
      19257    51 -109.020951 -109.020922    0.000029  19.458    0.00000    0.00000
      19258    52 -109.020951 -109.020922    0.000028  19.458    0.00000    0.00000
      19259    51 -109.020950 -109.020922    0.000028  19.458    0.00000    0.00000
      19260    51 -109.020950 -109.020922    0.000028  19.458    0.00000    0.00000
      19261    51 -109.020950 -109.020922    0.000028  19.458    0.00000    0.00000
      19262    51 -109.020950 -109.020922    0.000028  19.458    0.00000    0.00000
      19263    51 -109.020950 -109.020922    0.000028  19.458    0.00000    0.00000
      19264    51 -109.020950 -109.020922    0.000029  19.458    0.00000    0.00000
      19265    51 -109.020950 -109.020922    0.000029  19.458    0.00000    0.00000
      19266    50 -109.020950 -109.020921    0.000029  19.458    0.00000    0.00000
      19267    51 -109.020950 -109.020921    0.000029  19.458    0.00000    0.00000
      19268    51 -109.020950 -109.020921    0.000030  19.458    0.00000    0.00000
      19269    51 -109.020950 -109.020921    0.000030  19.458    0.00000    0.00000
      19270    51 -109.020950 -109.020920    0.000030  19.458    0.00000    0.00000
      19271    51 -109.020950 -109.020920    0.000030  19.458    0.00000    0.00000
      19272    51 -109.020950 -109.020920    0.000031  19.458    0.00000    0.00000
      19273    51 -109.020950 -109.020920    0.000031  19.458    0.00000    0.00000
      19274    51 -109.020950 -109.020920    0.000031  19.458    0.00000    0.00000
      19275    51 -109.020950 -109.020920    0.000031  19.458    0.00000    0.00000
      19276    51 -109.020950 -109.020920    0.000031  19.458    0.00000    0.00000
      19277    51 -109.020950 -109.020919    0.000031  19.458    0.00000    0.00000
      19278    51 -109.020950 -109.020920    0.000031  19.458    0.00000    0.00000
      19279    51 -109.020950 -109.020920    0.000031  19.458    0.00000    0.00000
      19280    51 -109.020950 -109.020920    0.000031  19.458    0.00000    0.00000
      19281    51 -109.020950 -109.020920    0.000031  19.458    0.00000    0.00000
      19282    51 -109.020950 -109.020920    0.000030  19.458    0.00000    0.00000
      19283    51 -109.020950 -109.020920    0.000030  19.458    0.00000    0.00000
      19284    51 -109.020950 -109.020920    0.000030  19.458    0.00000    0.00000
      19285    51 -109.020950 -109.020921    0.000030  19.458    0.00000    0.00000
      19286    51 -109.020950 -109.020921    0.000030  19.458    0.00000    0.00000
      19287    51 -109.020950 -109.020921    0.000029  19.458    0.00000    0.00000
      19288    51 -109.020950 -109.020921    0.000029  19.458    0.00000    0.00000
      19289    51 -109.020950 -109.020921    0.000029  19.458    0.00000    0.00000
      19290    51 -109.020950 -109.020921    0.000029  19.458    0.00000    0.00000
      19291    51 -109.020950 -109.020922    0.000029  19.458    0.00000    0.00000
      19292    51 -109.020950 -109.020922    0.000029  19.458    0.00000    0.00000
      19293    51 -109.020950 -109.020922    0.000029  19.458    0.00000    0.00000
      19294    51 -109.020950 -109.020921    0.000029  19.458    0.00000    0.00000
      19295    52 -109.020950 -109.020921    0.000029  19.458    0.00000    0.00000
      19296    51 -109.020950 -109.020921    0.000029  19.458    0.00000    0.00000
      19297    51 -109.020950 -109.020921    0.000029  19.458    0.00000    0.00000
      19298    52 -109.020950 -109.020921    0.000029  19.458    0.00000    0.00000
      19299    51 -109.020950 -109.020921    0.000030  19.458    0.00000    0.00000
      19300    51 -109.020950 -109.020921    0.000030  19.458    0.00000    0.00000
      19301    51 -109.020950 -109.020920    0.000030  19.458    0.00000    0.00000
      19302    51 -109.020950 -109.020920    0.000030  19.458    0.00000    0.00000
      19303    51 -109.020950 -109.020920    0.000030  19.458    0.00000    0.00000
      19304    51 -109.020950 -109.020920    0.000030  19.458    0.00000    0.00000
      19305    51 -109.020950 -109.020920    0.000030  19.458    0.00000    0.00000
      19306    51 -109.020950 -109.020920    0.000031  19.458    0.00000    0.00000
      19307    51 -109.020950 -109.020920    0.000031  19.458    0.00000    0.00000
      19308    51 -109.020950 -109.020920    0.000031  19.458    0.00000    0.00000
      19309    51 -109.020950 -109.020920    0.000031  19.458    0.00000    0.00000
      19310    52 -109.020950 -109.020920    0.000030  19.458    0.00000    0.00000
      19311    51 -109.020950 -109.020920    0.000030  19.458    0.00000    0.00000
      19312    51 -109.020950 -109.020920    0.000030  19.458    0.00000    0.00000
      19313    52 -109.020950 -109.020920    0.000030  19.458    0.00000    0.00000
      19314    51 -109.020950 -109.020920    0.000030  19.458    0.00000    0.00000
      19315    51 -109.020950 -109.020921    0.000030  19.458    0.00000    0.00000
      19316    51 -109.020950 -109.020921    0.000030  19.458    0.00000    0.00000
      19317    51 -109.020950 -109.020921    0.000030  19.458    0.00000    0.00000
      19318    51 -109.020950 -109.020921    0.000030  19.458    0.00000    0.00000
      19319    51 -109.020950 -109.020921    0.000029  19.458    0.00000    0.00000
      19320    51 -109.020950 -109.020921    0.000029  19.458    0.00000    0.00000
      19321    51 -109.020950 -109.020921    0.000029  19.458    0.00000    0.00000
      19322    51 -109.020950 -109.020921    0.000029  19.458    0.00000    0.00000
      19323    51 -109.020950 -109.020921    0.000029  19.458    0.00000    0.00000
      19324    51 -109.020950 -109.020921    0.000029  19.458    0.00000    0.00000
      19325    51 -109.020950 -109.020921    0.000029  19.458    0.00000    0.00000
      19326    52 -109.020950 -109.020921    0.000029  19.458    0.00000    0.00000
      19327    51 -109.020950 -109.020921    0.000029  19.458    0.00000    0.00000
      19328    51 -109.020950 -109.020921    0.000029  19.458    0.00000    0.00000
      19329    52 -109.020950 -109.020921    0.000030  19.458    0.00000    0.00000
      19330    51 -109.020950 -109.020921    0.000030  19.458    0.00000    0.00000
      19331    51 -109.020950 -109.020921    0.000030  19.458    0.00000    0.00000
      19332    51 -109.020950 -109.020921    0.000030  19.458    0.00000    0.00000
      19333    51 -109.020950 -109.020920    0.000030  19.458    0.00000    0.00000
      19334    52 -109.020950 -109.020920    0.000030  19.458    0.00000    0.00000
      19335    51 -109.020950 -109.020920    0.000030  19.458    0.00000    0.00000
      19336    51 -109.020950 -109.020920    0.000030  19.458    0.00000    0.00000
      19337    51 -109.020950 -109.020920    0.000030  19.458    0.00000    0.00000
      19338    51 -109.020950 -109.020920    0.000030  19.458    0.00000    0.00000
      19339    51 -109.020950 -109.020920    0.000030  19.458    0.00000    0.00000
      19340    51 -109.020950 -109.020920    0.000030  19.458    0.00000    0.00000
      19341    51 -109.020950 -109.020920    0.000030  19.458    0.00000    0.00000
      19342    50 -109.020950 -109.020920    0.000030  19.458    0.00000    0.00000
      19343    51 -109.020950 -109.020920    0.000030  19.458    0.00000    0.00000
      19344    52 -109.020950 -109.020920    0.000030  19.458    0.00000    0.00000
      19345    51 -109.020950 -109.020920    0.000030  19.458    0.00000    0.00000
      19346    51 -109.020950 -109.020921    0.000030  19.458    0.00000    0.00000
      19347    52 -109.020950 -109.020921    0.000030  19.458    0.00000    0.00000
      19348    52 -109.020950 -109.020921    0.000030  19.458    0.00000    0.00000
      19349    51 -109.020950 -109.020921    0.000030  19.458    0.00000    0.00000
      19350    51 -109.020950 -109.020921    0.000030  19.458    0.00000    0.00000
      19351    52 -109.020950 -109.020921    0.000030  19.458    0.00000    0.00000
      19352    50 -109.020950 -109.020921    0.000030  19.458    0.00000    0.00000
      19353    51 -109.020950 -109.020921    0.000030  19.458    0.00000    0.00000
      19354    51 -109.020950 -109.020921    0.000030  19.458    0.00000    0.00000
      19355    51 -109.020950 -109.020921    0.000030  19.458    0.00000    0.00000
      19356    51 -109.020950 -109.020921    0.000030  19.458    0.00000    0.00000
      19357    51 -109.020950 -109.020921    0.000030  19.458    0.00000    0.00000
      19358    51 -109.020950 -109.020921    0.000030  19.458    0.00000    0.00000
      19359    51 -109.020950 -109.020921    0.000030  19.458    0.00000    0.00000
      19360    51 -109.020950 -109.020921    0.000030  19.458    0.00000    0.00000
      19361    51 -109.020950 -109.020921    0.000030  19.458    0.00000    0.00000
      19362    51 -109.020950 -109.020921    0.000030  19.458    0.00000    0.00000
      19363    52 -109.020950 -109.020921    0.000030  19.458    0.00000    0.00000
      19364    51 -109.020950 -109.020921    0.000030  19.458    0.00000    0.00000
      19365    51 -109.020950 -109.020920    0.000030  19.458    0.00000    0.00000
      19366    51 -109.020950 -109.020920    0.000030  19.458    0.00000    0.00000
      19367    51 -109.020950 -109.020920    0.000030  19.458    0.00000    0.00000
      19368    51 -109.020950 -109.020920    0.000030  19.458    0.00000    0.00000
      19369    52 -109.020950 -109.020920    0.000030  19.458    0.00000    0.00000
      19370    51 -109.020950 -109.020920    0.000030  19.458    0.00000    0.00000
      19371    51 -109.020950 -109.020920    0.000030  19.458    0.00000    0.00000
      19372    51 -109.020950 -109.020920    0.000030  19.458    0.00000    0.00000
      19373    51 -109.020950 -109.020920    0.000030  19.458    0.00000    0.00000
      19374    51 -109.020950 -109.020920    0.000030  19.458    0.00000    0.00000
      19375    51 -109.020950 -109.020921    0.000030  19.458    0.00000    0.00000
      19376    51 -109.020950 -109.020921    0.000030  19.458    0.00000    0.00000
      19377    51 -109.020950 -109.020921    0.000030  19.458    0.00000    0.00000
      19378    51 -109.020950 -109.020921    0.000030  19.458    0.00000    0.00000
      19379    52 -109.020950 -109.020921    0.000030  19.458    0.00000    0.00000
      19380    51 -109.020950 -109.020921    0.000030  19.458    0.00000    0.00000
      19381    51 -109.020950 -109.020921    0.000030  19.458    0.00000    0.00000
      19382    51 -109.020950 -109.020921    0.000030  19.458    0.00000    0.00000
      19383    51 -109.020950 -109.020921    0.000030  19.458    0.00000    0.00000
      19384    51 -109.020950 -109.020921    0.000030  19.458    0.00000    0.00000
      19385    51 -109.020950 -109.020921    0.000030  19.458    0.00000    0.00000
      19386    51 -109.020950 -109.020921    0.000030  19.458    0.00000    0.00000
      19387    51 -109.020950 -109.020921    0.000030  19.458    0.00000    0.00000
      19388    51 -109.020950 -109.020921    0.000030  19.458    0.00000    0.00000
      19389    51 -109.020950 -109.020921    0.000030  19.458    0.00000    0.00000
      19390    51 -109.020950 -109.020921    0.000030  19.458    0.00000    0.00000
      19391    51 -109.020950 -109.020921    0.000030  19.458    0.00000    0.00000
      19392    51 -109.020950 -109.020921    0.000030  19.458    0.00000    0.00000
      19393    52 -109.020950 -109.020921    0.000030  19.458    0.00000    0.00000
      19394    51 -109.020950 -109.020921    0.000030  19.458    0.00000    0.00000
      19395    51 -109.020950 -109.020921    0.000030  19.458    0.00000    0.00000
      19396    51 -109.020950 -109.020921    0.000030  19.458    0.00000    0.00000
      19397    51 -109.020950 -109.020920    0.000030  19.458    0.00000    0.00000
      19398    51 -109.020950 -109.020920    0.000030  19.458    0.00000    0.00000
      19399    51 -109.020950 -109.020920    0.000030  19.458    0.00000    0.00000

        ==> Orbital Optimization <==

            Jacobi Optimization converged.
            Total energy change: -2.438583e-11

      19400    51 -109.020950 -109.020960    0.000010  19.516    0.00000    0.00000

        ==> Orbital Optimization <==

            Jacobi Optimization converged.
            Total energy change: -6.650680e-12


      v2RDM iterations converged!

      v2RDM total spin [S(S+1)]:            -0.000000
    * v2RDM total energy:           -109.020950368942



Properties will be evaluated at   0.000000,   0.000000,   0.000000 Bohr


Properties will be evaluated at   0.000000,   0.000000,   0.000000 Bohr

  Mulliken Charges: (a.u.)

   Center  Symbol    Alpha    Beta     Spin     Total
       1     N     3.50000  3.50000  0.00000 -0.00000
       2     N     3.50000  3.50000  0.00000 -0.00000

   Total alpha =  7.00000, Total beta =  7.00000, Total charge = -0.00000

 # Natural Orbital Occupation Numbers (alpha) #
 Irrep: 1
      1:  1.0000000
      2:  1.0000000
      3:  0.9900112
      4:  0.0000000
      5:  0.0000000

 Irrep: 2

 Irrep: 3
      1:  0.0362751
      2:  0.0000000

 Irrep: 4
      1:  0.0362751
      2:  0.0000000

 Irrep: 5

 Irrep: 6
      1:  1.0000000
      2:  1.0000000
      3:  0.0099891
      4:  0.0000000
      5:  0.0000000

 Irrep: 7
      1:  0.9637248
      2:  0.0000000

 Irrep: 8
      1:  0.9637248
      2:  0.0000000


 # Natural Orbital Occupation Numbers (beta) #
 Irrep: 1
      1:  1.0000000
      2:  1.0000000
      3:  0.9899914
      4:  0.0000000
      5:  0.0000000

 Irrep: 2

 Irrep: 3
      1:  0.0362707
      2:  0.0000000

 Irrep: 4
      1:  0.0362707
      2:  0.0000000

 Irrep: 5

 Irrep: 6
      1:  1.0000000
      2:  1.0000000
      3:  0.0100088
      4:  0.0000000
      5:  0.0000000

 Irrep: 7
      1:  0.9637292
      2:  0.0000000

 Irrep: 8
      1:  0.9637292
      2:  0.0000000


*** tstop() called on ubuntu at Wed Aug 19 09:13:53 2015
Module time:
	user time   =      53.40 seconds =       0.89 minutes
	system time =       0.04 seconds =       0.00 minutes
	total time  =         53 seconds =       0.88 minutes
Total time:
	user time   =      67.08 seconds =       1.12 minutes
	system time =       0.08 seconds =       0.00 minutes
	total time  =         67 seconds =       1.12 minutes

*** PSI4 exiting successfully. Buy a developer a beer!
